 --invoking executable--
/home/asmola/.local/bin/xjoda


   *************************************************************************
         <<<     CCCCCC     CCCCCC   |||     CCCCCC     CCCCCC   >>>
       <<<      CCC        CCC       |||    CCC        CCC         >>>
      <<<      CCC        CCC        |||   CCC        CCC            >>>
    <<<        CCC        CCC        |||   CCC        CCC              >>>
      <<<      CCC        CCC        |||   CCC        CCC            >>>
       <<<      CCC        CCC       |||    CCC        CCC         >>>
         <<<     CCCCCC     CCCCCC   |||     CCCCCC     CCCCCC   >>>
   *************************************************************************

     ****************************************************************
     * CFOUR Coupled-Cluster techniques for Computational Chemistry *
     ****************************************************************
 

   Department of Chemistry                Institut fuer Physikalische Chemie
   University of Florida                  Universitaet Mainz
   Gainesville, FL 32611, USA             D-55099 Mainz, Germany

   Department of Chemistry                Fakultaet fuer Chemie und Biowiss.
   Johns Hopkins University               Karlsruher Institut fuer Technologie
   Baltimore, MD 21218, USA               D-76131 Karlsruhe, Germany

   Department of Chemistry                Department of Physical Chemistry
   Southern Methodist University          Eotvos Lorand University
   Dallas, TX 75275, USA                  H-1053 Budapest, Hungary

 
                       Version 2.1
 
                     vincent.theory.phys.ucl.ac.uk                     
                     Mon 20 Jan 11:56:10 GMT 2025                      
                     integer*8 version is running
 
********************************************************************************
*                          Input from ZMAT file                                *
********************************************************************************
Hypochlorous acid higher-order corrections                                      
O                                                                               
H 1 ROH                                                                         
CL 1 ROCL 2 A                                                                   
                                                                                
ROH=0.96                                                                        
ROCL=1.683                                                                      
A=106.000000                                                                    
                                                                                
*CFOUR(CALC=CCSD,BASIS=AUG-PCVTZ,SCF_CONV=10                                    
CC_CONV=8,DBOC=ON,MEMORY=500000000)                                             
                                                                                
********************************************************************************
  @GTFLGS-I, Hessian will be transformed to curvilinear coordinates.
    -------------------------------------------------------------------
                    CFOUR Control Parameters 
    -------------------------------------------------------------------
        External           Internal           Value            Units
          Name               Name
    -------------------------------------------------------------------
       ABCDTYPE             IABCDT         STANDARD    [  0]    ***   
       ANHARMONIC           IANHAR         OFF         [  0]    ***   
       ANH_ALGORIT          IANALG         STANDARD    [  0]    ***   
       ANH_DERIVAT          IANDER         SECOND      [  1]    ***   
       ANH_MODE             ANHMOD         VIBRATION   [  0]    ***   
       ANH_STEPSIZ          ICUBST             50000          x 10-6  
       ANH_SYMMETR          IANHSM         ABELIAN     [  0]    ***   
       AO_LADDERS           IAOLAD         SINGLEPASS  [  1]    ***   
       AV_SCF               IAVSCF         OFF         [  0]    ***   
       BASIS                IBASIS         AUG-PCVTZ   [ 51]    ***   
       BOTHVECTORS          BOTHVC         OFF         [  0]    ***   
       BOX_POTENT           IPIAB          OFF         [  0]    ***   
       BREIT                IBREIT         OFF         [  0]    ***   
       BRUCK_CONV           IBRTOL          10D-  4             ***   
       BRUECKNER            IBRKNR         OFF         [  0]    ***   
       BUFFERSIZE           IBUFFS              4096            ***   
       CACHE_RECS           ICHREC             10               ***   
       CALCLEVEL            ICLLVL         CCSD        [ 10]    ***   
       CCORBOPT             ICCORB         OFF         [  0]  x 0.01  
       CC_CONV              ICCCNV          10D-  8             ***   
       CC_EXPORDER          ICCEOR              5               ***   
       CC_EXTRAPOL          ICCEXT         DIIS        [  1]    ***   
       CC_GUESS             ICCGES         MP2         [  0]    ***   
       CC_MAXCYC            ICCCYC            100              cycles 
       CC_PROGRAM           ICCPRO         VCC         [  0]    ***   
       CHARGE               ICHRGE              0               ***   
       CHOLESKY             ICHOLE         OFF         [  0]    ***   
       CIS_CONV             ICISTL              5               ***   
       COMM_SIZE            IPSIZE            ***               ***   
       CONSTANT             ICONST         OLD         [  1]    ***   
       CONTINUUM            ICONTU         NONE        [  0]    ***   
       CONTRACTION          ICNTYP         GENERAL     [  1]    ***   
       COORDINATES          ICOORD         INTERNAL    [  0]    ***   
       CPHF_CONVER          ICPHFT          10D- 16             ***   
       CPHF_MAXCYC          ICPHFC             64              cycles 
       CUBIC                ICUBIC         OFF         [  0]    ***   
       CURVILINEAR          ICURVY         ON          [  1]    ***   
       DBOC                 IDBOC          ON          [  1]    ***   
       DCT                  IDCT           OFF         [  0]    ***   
       DERIV_LEV            IDRLVL         SECOND      [  2]    ***   
       DEVMEM_SIZE          IDVMEM          50000000           MByte  
       DIAG_MRCC            IEOMST          10D-  0             ***   
       DIFF_TYPE            IDIFTY         RELAXED     [  0]    ***   
       DIRECT               IDIRCT         OFF         [  0]    ***   
       DROPMO               IDRPMO      NONE         
       ECP                  IECP           OFF         [  0]    ***   
       EIGENVECTOR          IVEC                1               ***   
       EL_ANHARM            IELANH         OFF         [  0]    ***   
       EOMFOLLOW            IEOMSR         ENERGY      [  0]    ***   
       EOMIP                IEOMIP         OFF         [  0]    ***   
       EOMLEVEL             HBARFM         SAME        [  0]    ***   
       EOM_MRCC             IMRCCE         NEW         [  1]    ***   
       EOM_NONIT            EOMNON         OFF         [  0]    ***   
       EOM_NSING            IEOMSI          10D-  0             ***   
       EOM_NSTATES          IMRCCD         DAVIDSON    [  0]    ***   
       EOM_NTRIP            IEOMTR          10D-  0             ***   
       EOM_ORDER            IEXORD         ENERGY      [  0]    ***   
       EOM_PROPSTA          IEOMST              0               ***   
       ESTATE_CONV          IEXTOL          10D-  5             ***   
       ESTATE_DIAG          IEXDIG         ITERATIVE   [  0]    ***   
       ESTATE_LOCK          IESLOC         ON          [  1]    ***   
       ESTATE_MAXC          IEXMXC             40               ***   
       ESTATE_PROP          IEXPRP         OFF         [  0]    ***   
       EVAL_HESS            IRECAL              0            # of cyc.
       EXCITATION           IEXCIT              0               ***   
       EXCITE               IEXCIT         NONE        [  0]    ***   
       EXTERN_POT           IEXPOT         OFF         [  0]    ***   
       FCGRADNEW            IFCGNW         OFF         [  0]    ***   
       FC_FIELD             IFINFC              0             x 10-6  
       FD_CALTYPE           IFDCAL         GRADONLY    [  0]    ***   
       FD_PROJECT           IFDPRJ         OFF         [  1]    ***   
       FD_STEPSIZE          IDISFD              0            10-4 bohr
       FD_USEGROUP          IFDGRP         FULL        [  0]    ***   
       FILE_RECSIZ          IFLREC              4096           words  
       FINITE_PERT          IFIPER              0             x 10-6  
       FIXGEOM              IFIXGM         OFF         [  0]    ***   
       FOCK                 IFOCK          AO          [  1]    ***   
       FREQ_ALGORI          IVIALG         STANDARD    [  0]    ***   
       FROZEN_CORE          IFROCO         OFF         [  0]    ***   
       GAMMA_ABCD           IGABCD         STORE       [  0]    ***   
       GAMMA_ABCI           IGABCI         STORE       [  0]    ***   
       GENBAS_1             IGNBS1              0               ***   
       GENBAS_2             IGNBS2              0               ***   
       GENBAS_3             IGNBS3              0               ***   
       GENBAS_4             IGNBS4              0               ***   
       GEO_CONV             ICONTL              5              H/bohr 
       GEO_MAXCYC           IOPTCY             50               ***   
       GEO_MAXSTEP          IMXSTP            300            millibohr
       GEO_METHOD           INR            SINGLE_POINT[  5]    ***   
       GIAO                 IGIAO          OFF         [  1]    ***   
       GIMIC                IGIMIC         OFF         [  0]    ***   
       GRID                 IGRID          OFF         [  0]    ***   
       GRID_ALGO            IGALGO         SERIAL      [  0]    ***   
       GUESS                IGUESS         MOREAD      [  0]    ***   
       HBAR                 IHBAR          OFF         [  0]    ***   
       HESS_TYPE            IHESTP         SCF         [  0]    ***   
       HF2_FILE             IHF2Fl         USE         [  1]    ***   
       HFSTABILITY          ISTABL         OFF         [  0]    ***   
       INCORE               INCORE         OFF         [  0]    ***   
       INPUT_MRCC           IMRCC          ON          [  1]    ***   
       INTEGRALS            INTTYP         VMOL        [  1]    ***   
       JODA_PRINT           IJPRNT              0               ***   
       KEYWORD_OUT          IDMPKW         NO          [  0]    ***   
       LINDEP_TOL           ILINDP              8               ***   
       LINEQ_CONV           IZTACN          10D-  7           cycles  
       LINEQ_EXPOR          ILMAXD              5               ***   
       LINEQ_MAXCY          ILMAXC            100               ***   
       LINEQ_TYPE           ILTYPE         DIIS        [  1]    ***   
       LOCK_ORBOCC          ILOCOC         OFF         [  0]    ***   
       MEMORY_SIZE          IMEMSZ         500000000           words  
       MEM_UNIT             IMEMU          INTEGERWORDS[  0]    ***   
       MRCC                 IMRCCC         OFF         [  0]    ***   
       MULTIPLICTY          IMULTP              1               ***   
       NACOUPLING           IVCOUP         OFF         [  0]    ***   
       NEGEVAL              IDIE           ABORT       [  0]    ***   
       NEWNORM              INEWNO         OFF         [  0]    ***   
       NON-HF               INONHF         OFF         [  0]    ***   
       NTOP_TAMP            ITOPT2             15               ***   
       NUC_MODEL            INUCMO         POINT       [  0]    ***   
       OCCUPATION           IOCCU   ESTIMATED BY SCF 
       OPEN-SHELL           IOPEN          SPIN-ORBITAL[  0]    ***   
       OPTVIB               IOPTVB         OFF         [  0]    ***   
       ORBITALS             IORBTP         STANDARD    [  0]    ***   
       PARALLEL             IPARAL         ON          [  1]    ***   
       PARA_INT             IPINTS         ON          [  1]    ***   
       PARA_PRINT           IPPRIN              0               ***   
       PERT_ORB             IPTORB         STANDARD    [  0]    ***   
       POINTS               IGRDFD              0               ***   
       PRINT                IPRNT               0               ***   
       PROPS                IPROPS         OFF         [  0]    ***   
       PROP_INTEGR          IINTYP         INTERNAL    [  0]    ***   
       PSI                  IPSI           OFF         [  0]    ***   
       QC_ALG               IQCALG         FLM         [  0]    ***   
       QC_LINALG            IQCLIN         TRIDIAG     [  2]    ***   
       QC_MAXCYC            IQCMAX          10D-100           cycles  
       QC_MAXSCFCY          IQCMSC          10D- 15           cycles  
       QC_RTRUST            IQCRTR          10D-  0           x 10-3  
       QC_SKIPSCF           IQCSKI         OFF         [  0]    ***   
       QC_START             IQCSTA          10D-  1             ***   
       QRHFGUESS            IQGUES         OFF         [  0]    ***   
       QUARTIC              IQUART         OFF         [  0]    ***   
       RAMAN_INT            IRAMIN         OFF         [  0]    ***   
       RAMAN_ORB            IRAMRE         UNRELAXED   [  0]    ***   
       RDO                  IRDOFM         ON          [  1]    ***   
       REDUCE_REPR          REDREP         Ir          [  0]    ***   
       REFERENCE            IREFNC         RHF         [  0]    ***   
       RELATIVIST           IRELAT         OFF         [  0]    ***   
       RELAX_DENS           IRDENS         ON          [  1]    ***   
       RESET_FLAGS          IRESET         OFF         [  0]    ***   
       RESTART_CC           ICCRES         OFF         [  0]    ***   
       ROT_EVEC             ROTVEC              0               ***   
       SAVE_INTS            ISVINT         OFF         [  0]    ***   
       SCALE_ON             ISTCRT              0               ***   
       SCF_CONV             ISCFCV          10D- 10             ***   
       SCF_DAMPING          IDAMP               0             x 10-3  
       SCF_EXPORDE          IRPPOR              6               ***   
       SCF_EXPSTAR          IRPPLS              8               ***   
       SCF_EXTRAPO          IRPP           ON          [  1]    ***   
       SCF_MAXCYC           ISCFCY            150              cycles 
       SCF_NOSTOP           ISCFST         OFF         [  0]    ***   
       SCF_PRINT            ISCFPR              0               ***   
       SCF_PROG             ISCFPR         SCF         [  0]    ***   
       SD_FIELD             IFINSD              0             x 10-6  
       SOPERT               IPERSO         OFF         [  0]    ***   
       SPHERICAL            IDFGHI         ON          [  1]    ***   
       SPINORBIT            ISOCAL         OFF         [  0]    ***   
       SPINROTATIO          ISRCON         OFF         [  0]    ***   
       SPIN_FLIP            ISPFLP         OFF         [  0]    ***   
       SPIN_ORBIT           ISPORB         OFF         [  0]    ***   
       SPIN_SCAL            ISCSMP         OFF         [  0]    ***   
       STEEPSCALE           ISTPSC              1000          x 10-3  
       SUBGROUP             ISUBGP         DEFAULT     [  0]    ***   
       SUBGRPAXIS           ISBXYZ         X           [  0]    ***   
       SYMMETRY             ISYM           ON          [  0]    ***   
       SYM_CHECK            ISYMCK         OVERRIDE    [  1]    ***   
       T3_EXTRAPOL          IT3EXT         OFF         [  0]    ***   
       T4_EXTRAPOL          IT4EXP         OFF         [  0]    ***   
       TAMP_SUM             IEVERY              5               ***   
       TESTSUITE            ITESTS         OFF         [  0]    ***   
       THERMOCH             ITHERM         OFF         [  0]    ***   
       TOL_CHOLESK          ITOLCH          10D-  4             ***   
       TRANGRAD             IRESRM         OFF         [  0]    ***   
       TRANS_INV            ITRAIN         IGNORE      [  1]    ***   
       TREAT_PERT           ITREAT         SIMULTANEOUS[  0]    ***   
       TRIP_ALGORI          ITRALG         NORMAL      [  0]    ***   
       UIJ_THRESHO          IUIJTH              1               ***   
       UNITS                IUNITS         ANGSTROM    [  0]    ***   
       UNOS                 IUNOS          OFF         [  0]    ***   
       UPDATE_HESS          IHUPDT         ON          [  1]    ***   
       VIBPHASE             ISETPH         STANDARD    [  0]    ***   
       VIBRATION            IVIB           ANALYTIC    [  1]    ***   
       VIB_ALGORIT          IGEALG         STANDARD    [  0]    ***   
       VNATORB              IVNORB         OFF         [  0]    ***   
       VTRAN                IVTRAN         FULL/PARTIAL[  0]    ***   
       XFIELD               IXEFLD              0             x 10-6  
       XFORM_TOL            IXFTOL          10D- 11             ***   
       YFIELD               IYEFLD              0             x 10-6  
       ZFIELD               IZEFLD              0             x 10-6  
       ZSCALE_EXP           IZEXPS         OFF         [  0]    ***   
    -------------------------------------------------------------------
   3 entries found in Z-matrix 
   Job Title : Hypochlorous acid higher-order corrections                                      
   There are  3 unique internal coordinates.
   Of these,  0 will be optimized.
   User supplied Z-matrix: 
--------------------------------------------------------------------------------
       SYMBOL    BOND      LENGTH    ANGLE     ANGLE     DIHED     ANGLE
                  TO      (ANGST)    WRT      (DEG)      WRT      (DEG)
--------------------------------------------------------------------------------
        O    
        H          1         ROH  
        CL         1         ROCL       2        A    
                  *Initial values for internal coordinates* 
                      Name             Value
                        ROH             0.9600000000
                        ROCL            1.6830000000
                        A             106.0000000000
--------------------------------------------------------------------------------
   Rotational constants (in cm-1): 
          0.4969956694             0.5088425135            21.3468264840
   Rotational constants (in MHz): 
      14899.5574206347         15254.7169218922        639961.8478698266
********************************************************************************
   The full molecular point group is C s .
   The largest Abelian subgroup of the full molecular point group is C s .
   The computational point group is C s .
********************************************************************************
--------------------------------------------------------------------------------
   Analysis of internal coordinates specified by Z-matrix 
--------------------------------------------------------------------------------
   *The nuclear repulsion energy is   51.345742016145465 a.u.
   *There are   3 degrees of freedom within the tot. symm. molecular subspace.
   *Z-matrix requests optimization of   0 coordinates.
   *The optimization is constrained.
   *The following   3 parameters can have non-zero 
    derivatives within the totally symmetric subspace:
             A    [ 3]  ROH  [ 1]  ROCL [ 2]
   *The following   0 parameters are to be optimized:

   *The following coordinates must be varied in an  unconstrained optimization.
             A    [ 3]  ROH  [ 1]  ROCL [ 2]
--------------------------------------------------------------------------------


 ----------------------------------------------------------------
         Coordinates used in calculation (QCOMP) 
 ----------------------------------------------------------------
 Z-matrix   Atomic            Coordinates (in bohr)
  Symbol    Number           X              Y              Z
 ----------------------------------------------------------------
     O         8        -2.12716294     0.11912683     0.00000000
     H         1        -2.69666497    -1.60330231    -0.00000000
     CL       17         1.05069378    -0.00828095    -0.00000000
 ----------------------------------------------------------------
 
   Interatomic distance matrix (Angstroms) 
 
                 O             H             CL   
                [ 1]        [ 2]        [ 3]
  O    [ 1]     0.00000
  H    [ 2]     0.96000     0.00000
  CL   [ 3]     1.68300     2.15517     0.00000
 rotcon2
   Rotational constants (in cm-1): 
         21.3468264840             0.5088425135             0.4969956694
   Rotational constants (in MHz): 
     639961.8478698261         15254.7169218922         14899.5574206347
  ECPDATA file not present.   Using default ECPDATA. 
  @GTFLGS-I, Hessian will be transformed to curvilinear coordinates.
  There are  162 basis functions.
 @CHECKOUT-I, Total execution time (CPU/WALL):        0.15/       0.17 seconds.
--executable xjoda finished with status     0 in        0.20 seconds (walltime).
 --invoking executable--
/home/asmola/.local/bin/xvmol
 SERIAL VERSION OF MOLECULE STARTED
********************************************************************************
                    INPUT FROM MOL FILE
********************************************************************************
INTGRL        1    0    1    0    0    0    0    0    0                         
         *** CFOUR Program System (Release V0.1) ***                            
Hypochlorous acid higher-order corrections                                      
    3    1 Z          0.10E-08              0    0                              
   9999.00      3.00                                                            
          8.00000000    1    4    1    1    1    1                              
O #1  -2.127162939296468   0.119126832533820   0.000000000000000                
   13    7                                                                      
   15330.0000000000       5.080000000000000E-004 -1.150000000000000E-004        
  0.000000000000000E+000  0.000000000000000E+000  0.000000000000000E+000        
  0.000000000000000E+000  0.000000000000000E+000                                
   2299.00000000000       3.929000000000000E-003 -8.950000000000000E-004        
  0.000000000000000E+000  0.000000000000000E+000  0.000000000000000E+000        
  0.000000000000000E+000  0.000000000000000E+000                                
   522.400000000000       2.024300000000000E-002 -4.636000000000000E-003        
  0.000000000000000E+000  0.000000000000000E+000  0.000000000000000E+000        
  0.000000000000000E+000  0.000000000000000E+000                                
   147.300000000000       7.918100000000000E-002 -1.872400000000000E-002        
  0.000000000000000E+000  0.000000000000000E+000  0.000000000000000E+000        
  0.000000000000000E+000  0.000000000000000E+000                                
   47.5500000000000       0.230687000000000      -5.846300000000000E-002        
  0.000000000000000E+000  0.000000000000000E+000  0.000000000000000E+000        
  0.000000000000000E+000  0.000000000000000E+000                                
   16.7600000000000       0.433118000000000      -0.136463000000000             
  0.000000000000000E+000  0.000000000000000E+000  0.000000000000000E+000        
  0.000000000000000E+000  0.000000000000000E+000                                
   6.20700000000000       0.350260000000000      -0.175740000000000             
  0.000000000000000E+000  0.000000000000000E+000  0.000000000000000E+000        
  0.000000000000000E+000  0.000000000000000E+000                                
   1.75200000000000       4.272800000000000E-002  0.160934000000000             
   1.00000000000000       0.000000000000000E+000  0.000000000000000E+000        
  0.000000000000000E+000  0.000000000000000E+000                                
  0.688200000000000      -8.154000000000000E-003  0.603418000000000             
  0.000000000000000E+000  0.000000000000000E+000  0.000000000000000E+000        
  0.000000000000000E+000  0.000000000000000E+000                                
  0.238400000000000       2.381000000000000E-003  0.378765000000000             
  0.000000000000000E+000   1.00000000000000       0.000000000000000E+000        
  0.000000000000000E+000  0.000000000000000E+000                                
   7.84500000000000       0.000000000000000E+000  0.000000000000000E+000        
  0.000000000000000E+000  0.000000000000000E+000   1.00000000000000             
  0.000000000000000E+000  0.000000000000000E+000                                
   21.0320000000000       0.000000000000000E+000  0.000000000000000E+000        
  0.000000000000000E+000  0.000000000000000E+000  0.000000000000000E+000        
   1.00000000000000       0.000000000000000E+000                                
  7.376000000000001E-002  0.000000000000000E+000  0.000000000000000E+000        
  0.000000000000000E+000  0.000000000000000E+000  0.000000000000000E+000        
  0.000000000000000E+000   1.00000000000000                                     
    8    6                                                                      
   34.4600000000000       1.592800000000000E-002  0.000000000000000E+000        
  0.000000000000000E+000  0.000000000000000E+000  0.000000000000000E+000        
  0.000000000000000E+000                                                        
   7.74900000000000       9.974000000000000E-002  0.000000000000000E+000        
  0.000000000000000E+000  0.000000000000000E+000  0.000000000000000E+000        
  0.000000000000000E+000                                                        
   2.28000000000000       0.310492000000000       0.000000000000000E+000        
  0.000000000000000E+000  0.000000000000000E+000  0.000000000000000E+000        
  0.000000000000000E+000                                                        
  0.715600000000000       0.491026000000000        1.00000000000000             
  0.000000000000000E+000  0.000000000000000E+000  0.000000000000000E+000        
  0.000000000000000E+000                                                        
  0.214000000000000       0.336337000000000       0.000000000000000E+000        
   1.00000000000000       0.000000000000000E+000  0.000000000000000E+000        
  0.000000000000000E+000                                                        
   15.1590000000000       0.000000000000000E+000  0.000000000000000E+000        
  0.000000000000000E+000   1.00000000000000       0.000000000000000E+000        
  0.000000000000000E+000                                                        
   57.4370000000000       0.000000000000000E+000  0.000000000000000E+000        
  0.000000000000000E+000  0.000000000000000E+000   1.00000000000000             
  0.000000000000000E+000                                                        
  5.974000000000000E-002  0.000000000000000E+000  0.000000000000000E+000        
  0.000000000000000E+000  0.000000000000000E+000  0.000000000000000E+000        
   1.00000000000000                                                             
    4    4                                                                      
   2.31400000000000        1.00000000000000       0.000000000000000E+000        
  0.000000000000000E+000  0.000000000000000E+000                                
  0.645000000000000       0.000000000000000E+000   1.00000000000000             
  0.000000000000000E+000  0.000000000000000E+000                                
   15.8580000000000       0.000000000000000E+000  0.000000000000000E+000        
   1.00000000000000       0.000000000000000E+000                                
  0.214000000000000       0.000000000000000E+000  0.000000000000000E+000        
  0.000000000000000E+000   1.00000000000000                                     
    2    2                                                                      
   1.42800000000000        1.00000000000000       0.000000000000000E+000        
  0.500000000000000       0.000000000000000E+000   1.00000000000000             
          1.00000000    1    3    1    1    1                                   
H #2  -2.696664968117179  -1.603302313285325  -0.000000000000002                
    6    4                                                                      
   33.8700000000000       6.068000000000000E-003  0.000000000000000E+000        
  0.000000000000000E+000  0.000000000000000E+000                                
   5.09500000000000       4.530800000000000E-002  0.000000000000000E+000        
  0.000000000000000E+000  0.000000000000000E+000                                
   1.15900000000000       0.202822000000000       0.000000000000000E+000        
  0.000000000000000E+000  0.000000000000000E+000                                
  0.325800000000000       0.503903000000000        1.00000000000000             
  0.000000000000000E+000  0.000000000000000E+000                                
  0.102700000000000       0.383421000000000       0.000000000000000E+000        
   1.00000000000000       0.000000000000000E+000                                
  2.526000000000000E-002  0.000000000000000E+000  0.000000000000000E+000        
  0.000000000000000E+000   1.00000000000000                                     
    3    3                                                                      
   1.40700000000000        1.00000000000000       0.000000000000000E+000        
  0.000000000000000E+000                                                        
  0.388000000000000       0.000000000000000E+000   1.00000000000000             
  0.000000000000000E+000                                                        
  0.102000000000000       0.000000000000000E+000  0.000000000000000E+000        
   1.00000000000000                                                             
    2    2                                                                      
   1.05700000000000        1.00000000000000       0.000000000000000E+000        
  0.247000000000000       0.000000000000000E+000   1.00000000000000             
         17.00000000    1    4    1    1    1    1                              
CL#3   1.050693781038984  -0.008280949587588  -0.000000000000000                
   18    8                                                                      
   456100.000000000       4.930000000000000E-005 -1.380000000000000E-005        
  4.200000000000000E-006  0.000000000000000E+000  0.000000000000000E+000        
  0.000000000000000E+000  0.000000000000000E+000  0.000000000000000E+000        
   68330.0000000000       3.830000000000000E-004 -1.073000000000000E-004        
  3.240000000000000E-005  0.000000000000000E+000  0.000000000000000E+000        
  0.000000000000000E+000  0.000000000000000E+000  0.000000000000000E+000        
   15550.0000000000       2.008500000000000E-003 -5.651000000000000E-004        
  1.711000000000000E-004  0.000000000000000E+000  0.000000000000000E+000        
  0.000000000000000E+000  0.000000000000000E+000  0.000000000000000E+000        
   4405.00000000000       8.385600000000000E-003 -2.361400000000000E-003        
  7.142000000000000E-004  0.000000000000000E+000  0.000000000000000E+000        
  0.000000000000000E+000  0.000000000000000E+000  0.000000000000000E+000        
   1439.00000000000       2.947030000000000E-002 -8.458900000000000E-003        
  2.567000000000000E-003  0.000000000000000E+000  0.000000000000000E+000        
  0.000000000000000E+000  0.000000000000000E+000  0.000000000000000E+000        
   520.400000000000       8.783249999999999E-002 -2.596380000000000E-002        
  7.885500000000000E-003  0.000000000000000E+000  0.000000000000000E+000        
  0.000000000000000E+000  0.000000000000000E+000  0.000000000000000E+000        
   203.100000000000       0.211473000000000      -6.863619999999999E-002        
  2.108670000000000E-002  0.000000000000000E+000  0.000000000000000E+000        
  0.000000000000000E+000  0.000000000000000E+000  0.000000000000000E+000        
   83.9600000000000       0.365364000000000      -0.141874000000000             
  4.422640000000000E-002  0.000000000000000E+000  0.000000000000000E+000        
  0.000000000000000E+000  0.000000000000000E+000  0.000000000000000E+000        
   36.2000000000000       0.340884000000000      -0.199319000000000             
  6.516700000000000E-002  0.000000000000000E+000  0.000000000000000E+000        
  0.000000000000000E+000  0.000000000000000E+000  0.000000000000000E+000        
   15.8300000000000       0.102133000000000      -1.956620000000000E-002        
  6.030100000000000E-003  0.000000000000000E+000  0.000000000000000E+000        
  0.000000000000000E+000  0.000000000000000E+000  0.000000000000000E+000        
   6.33400000000000       3.116800000000000E-003  0.499741000000000             
 -0.206495000000000       0.000000000000000E+000  0.000000000000000E+000        
  0.000000000000000E+000  0.000000000000000E+000  0.000000000000000E+000        
   2.69400000000000       1.057500000000000E-003  0.563736000000000             
 -0.405871000000000       0.000000000000000E+000  0.000000000000000E+000        
  0.000000000000000E+000  0.000000000000000E+000  0.000000000000000E+000        
  0.976800000000000      -3.780000000000000E-004  7.903250000000001E-002        
  7.595580000000000E-002   1.00000000000000       0.000000000000000E+000        
  0.000000000000000E+000  0.000000000000000E+000  0.000000000000000E+000        
  0.431300000000000       1.561000000000000E-004 -8.350900000000000E-003        
  0.725661000000000       0.000000000000000E+000  0.000000000000000E+000        
  0.000000000000000E+000  0.000000000000000E+000  0.000000000000000E+000        
  0.162500000000000      -5.140000000000000E-005  2.324600000000000E-003        
  0.394423000000000       0.000000000000000E+000   1.00000000000000             
  0.000000000000000E+000  0.000000000000000E+000  0.000000000000000E+000        
   15.0640000000000       0.000000000000000E+000  0.000000000000000E+000        
  0.000000000000000E+000  0.000000000000000E+000  0.000000000000000E+000        
   1.00000000000000       0.000000000000000E+000  0.000000000000000E+000        
   2.87400000000000       0.000000000000000E+000  0.000000000000000E+000        
  0.000000000000000E+000  0.000000000000000E+000  0.000000000000000E+000        
  0.000000000000000E+000   1.00000000000000       0.000000000000000E+000        
  5.910000000000000E-002  0.000000000000000E+000  0.000000000000000E+000        
  0.000000000000000E+000  0.000000000000000E+000  0.000000000000000E+000        
  0.000000000000000E+000  0.000000000000000E+000   1.00000000000000             
   12    7                                                                      
   663.300000000000       2.404500000000000E-003 -6.521000000000000E-004        
  0.000000000000000E+000  0.000000000000000E+000  0.000000000000000E+000        
  0.000000000000000E+000  0.000000000000000E+000                                
   156.800000000000       1.921480000000000E-002 -5.194500000000000E-003        
  0.000000000000000E+000  0.000000000000000E+000  0.000000000000000E+000        
  0.000000000000000E+000  0.000000000000000E+000                                
   49.9800000000000       8.850970000000000E-002 -2.469380000000000E-002        
  0.000000000000000E+000  0.000000000000000E+000  0.000000000000000E+000        
  0.000000000000000E+000  0.000000000000000E+000                                
   18.4200000000000       0.256020000000000      -7.281670000000000E-002        
  0.000000000000000E+000  0.000000000000000E+000  0.000000000000000E+000        
  0.000000000000000E+000  0.000000000000000E+000                                
   7.24000000000000       0.436927000000000      -0.134030000000000             
  0.000000000000000E+000  0.000000000000000E+000  0.000000000000000E+000        
  0.000000000000000E+000  0.000000000000000E+000                                
   2.92200000000000       0.350334000000000      -9.477420000000000E-002        
  0.000000000000000E+000  0.000000000000000E+000  0.000000000000000E+000        
  0.000000000000000E+000  0.000000000000000E+000                                
   1.02200000000000       5.854950000000000E-002  0.262289000000000             
   1.00000000000000       0.000000000000000E+000  0.000000000000000E+000        
  0.000000000000000E+000  0.000000000000000E+000                                
  0.381800000000000      -4.584200000000000E-003  0.564667000000000             
  0.000000000000000E+000  0.000000000000000E+000  0.000000000000000E+000        
  0.000000000000000E+000  0.000000000000000E+000                                
  0.130100000000000       2.269700000000000E-003  0.341250000000000             
  0.000000000000000E+000   1.00000000000000       0.000000000000000E+000        
  0.000000000000000E+000  0.000000000000000E+000                                
   9.48000000000000       0.000000000000000E+000  0.000000000000000E+000        
  0.000000000000000E+000  0.000000000000000E+000   1.00000000000000             
  0.000000000000000E+000  0.000000000000000E+000                                
   3.66800000000000       0.000000000000000E+000  0.000000000000000E+000        
  0.000000000000000E+000  0.000000000000000E+000  0.000000000000000E+000        
   1.00000000000000       0.000000000000000E+000                                
  4.190000000000000E-002  0.000000000000000E+000  0.000000000000000E+000        
  0.000000000000000E+000  0.000000000000000E+000  0.000000000000000E+000        
  0.000000000000000E+000   1.00000000000000                                     
    6    6                                                                      
   1.04600000000000        1.00000000000000       0.000000000000000E+000        
  0.000000000000000E+000  0.000000000000000E+000  0.000000000000000E+000        
  0.000000000000000E+000                                                        
  0.344000000000000       0.000000000000000E+000   1.00000000000000             
  0.000000000000000E+000  0.000000000000000E+000  0.000000000000000E+000        
  0.000000000000000E+000                                                        
   17.9570000000000       0.000000000000000E+000  0.000000000000000E+000        
   1.00000000000000       0.000000000000000E+000  0.000000000000000E+000        
  0.000000000000000E+000                                                        
   5.76000000000000       0.000000000000000E+000  0.000000000000000E+000        
  0.000000000000000E+000   1.00000000000000       0.000000000000000E+000        
  0.000000000000000E+000                                                        
  0.135000000000000       0.000000000000000E+000  0.000000000000000E+000        
  0.000000000000000E+000  0.000000000000000E+000   1.00000000000000             
  0.000000000000000E+000                                                        
  2.700000000000000E-002  0.000000000000000E+000  0.000000000000000E+000        
  0.000000000000000E+000  0.000000000000000E+000  0.000000000000000E+000        
   1.00000000000000                                                             
    3    3                                                                      
  0.706000000000000        1.00000000000000       0.000000000000000E+000        
  0.000000000000000E+000                                                        
   11.7790000000000       0.000000000000000E+000   1.00000000000000             
  0.000000000000000E+000                                                        
  0.312000000000000       0.000000000000000E+000  0.000000000000000E+000        
   1.00000000000000                                                             
FINISH                                                                          
 
********************************************************************************
 ONE- AND TWO-ELECTRON INTEGRALS OVER SYMMETRY-ADAPTED AOS ARE CALCULATED.

  SPHERICAL HARMONICS ARE USED.
  
  INTEGRALS LESS THAN  0.10E-13 ARE NEGLECTED.

  NUCLEAR REPULSION ENERGY :   51.3457420161 A.U.
  @MOLECU-I, ONE ELECTRON INTEGRALS (CPU/WALL):        0.04/       0.04 SECONDS.
  @TWOEL-I,   15973179 INTEGRALS OF SYMMETRY TYPE  I I I I
  @TWOEL-I,   15357665 INTEGRALS OF SYMMETRY TYPE  I J I J
  @TWOEL-I,    7911260 INTEGRALS OF SYMMETRY TYPE  I I J J
  @TWOEL-I, TOTAL NUMBER OF 2-E INTEGRALS   39242104.
  @MOLECU-I, TWO ELECTRON INTEGRALS (CPU/WALL):       61.81/      11.14 SECONDS.
 @CHECKOUT-I, Total execution time (CPU/WALL):       61.86/      11.20 seconds.

Running with 8 threads/proc

--executable xvmol finished with status     0 in       11.23 seconds (walltime).
 --invoking executable--
/home/asmola/.local/bin/xvmol2ja
 @GETMEM-I,  Allocated    3814 MB of main memory.
 @CHECKOUT-I, Total execution time (CPU/WALL):        0.09/       0.02 seconds.
--executable xvmol2ja finished with status     0 in        0.04 seconds (walltime).
 --invoking executable--
/home/asmola/.local/bin/xvscf
  There are  162 functions in the AO basis.

  There are 2 irreducible representations.

       Irrep        # of functions
         1                107
         2                 55


  Parameters for SCF calculation: 
        SCF reference function:  RHF  
  Maximum number of iterations:  150
     Full symmetry point group: C s 
     Computational point group: C s 
        Initial density matrix: MOREAD                 
     SCF convergence tolerance: 10**(-10)
  DIIS convergence acceleration:  ON
          Latest start for DIIS:   8
                     DIIS order:   6

  Memory information:    1286912 words required.
  Fock matrices are constructed from AO integral file.
 @GETMEM-I,  Allocated       9 MB of main memory.
  Initialization and symmetry analysis required      0.001 seconds.

  @INITGES-I, Occupancies from core Hamiltonian:

          Alpha population by irrep:  10    3
           Beta population by irrep:  10    3


 total no. of electrons in initial guess :  0.000000000000000E+000
  --------------------------------------------------------------------
  Iteration         Total Energy            Largest Density Difference
  --------------------------------------------------------------------
       0            51.345742016145451              0.0000000000D+00
   current occupation vector 
    10  3
    10  3
       1          -365.213690629943471              0.1326748881D+02
   current occupation vector 
    10  3
    10  3
       2          -338.725809397792318              0.1325319344D+02
   current occupation vector 
    10  3
    10  3
       3          -421.069230135507269              0.1075784461D+02
   current occupation vector 
    10  3
    10  3
       4          -336.520262212188754              0.1076026755D+02
   current occupation vector 
    10  3
    10  3
       5          -420.832246568858636              0.1069913015D+02
   current occupation vector 
    10  3
    10  3
       6          -336.406379764520352              0.1069886348D+02
   current occupation vector 
    10  3
    10  3
       7          -420.811024000561019              0.1069345244D+02
   current occupation vector 
    10  3
    10  3
       8          -336.396438934047922              0.1069342368D+02
   current occupation vector 
    10  3
    10  3
       9          -446.376312362624560              0.8218275300D+01
   current occupation vector 
    10  3
    10  3
      10          -465.635519782922870              0.2121239348D+01
   current occupation vector 
    10  3
    10  3
      11          -474.348781368612094              0.1078920566D+01
   current occupation vector 
    10  3
    10  3
      12          -476.852857856208061              0.3205012848D+00
   current occupation vector 
    10  3
    10  3
      13          -477.625916116016469              0.1025814930D+00
   current occupation vector 
    10  3
    10  3
      14          -481.919474079036490              0.5772911270D+00
   current occupation vector 
    10  3
    10  3
      15          -505.837021141469222              0.7592667078D+01
   current occupation vector 
    10  3
    10  3
      16          -520.925088056177628              0.7592173684D+01
   current occupation vector 
    11  2
    11  2
      17          -525.661627046278682              0.4542615338D+01
   current occupation vector 
    11  2
    11  2
      18          -533.418868216352735              0.3270411286D+01
   current occupation vector 
    10  3
    10  3
      19          -534.645673372150213              0.8541985115D+00
   current occupation vector 
    10  3
    10  3
      20          -534.905691296552618              0.3782201050D+00
   current occupation vector 
    10  3
    10  3
      21          -534.921868908348188              0.1682536345D+00
   current occupation vector 
    10  3
    10  3
      22          -534.924102770216450              0.4718448506D-01
   current occupation vector 
    10  3
    10  3
      23          -534.924637453503919              0.3229740746D-01
   current occupation vector 
    10  3
    10  3
      24          -534.924691098281187              0.9775278885D-02
   current occupation vector 
    10  3
    10  3
      25          -534.924701286692311              0.4757299075D-02
   current occupation vector 
    10  3
    10  3
      26          -534.924702041764817              0.8716333725D-03
   current occupation vector 
    10  3
    10  3
      27          -534.924702136606356              0.3978531172D-03
   current occupation vector 
    10  3
    10  3
      28          -534.924702159327353              0.2713980218D-03
   current occupation vector 
    10  3
    10  3
      29          -534.924702160123502              0.5165022532D-04
   current occupation vector 
    10  3
    10  3
      30          -534.924702160168067              0.1134868894D-04
   current occupation vector 
    10  3
    10  3
      31          -534.924702160172274              0.2232550602D-05
   current occupation vector 
    10  3
    10  3
      32          -534.924702160173524              0.7638809863D-06
   current occupation vector 
    10  3
    10  3
      33          -534.924702160174775              0.2769388728D-06
   current occupation vector 
    10  3
    10  3
      34          -534.924702160172728              0.9516482880D-07
   current occupation vector 
    10  3
    10  3
      35          -534.924702160173297              0.5480697474D-07
   current occupation vector 
    10  3
    10  3
      36          -534.924702160171023              0.2774952619D-07
   current occupation vector 
    10  3
    10  3
      37          -534.924702160168977              0.1430059808D-07
   current occupation vector 
    10  3
    10  3
      38          -534.924702160168977              0.6598302821D-08
   current occupation vector 
    10  3
    10  3
      39          -534.924702160173410              0.1398887409D-08
   current occupation vector 
    10  3
    10  3
      40          -534.924702160170341              0.5879628728D-09
   current occupation vector 
    10  3
    10  3
      41          -534.924702160171364              0.2435087548D-09
   current occupation vector 
    10  3
    10  3

  SCF has converged.

 Density matrix saved to file den.dat
 total electron number:   25.9999999999999     
     E(SCF)=      -534.924702160170455              0.7539689706D-10

  Eigenvector printing suppressed.

 @PUTMOS-I, Writing converged MOs to NEWMOS. 
 @PUTMOS-I, Symmetry   1 Full Blocks 26 Partial Blocksize   3
 @PUTMOS-I, Symmetry   2 Full Blocks 13 Partial Blocksize   3
 @PUTFOCK-I, Writing converged Fock matrix to NEWFOCK. 
 @PUTFOCK-I, Symmetry   1 Full Blocks 26 Partial Blocksize   3
 @PUTFOCK-I, Symmetry   2 Full Blocks 13 Partial Blocksize   3


 
  ORBITAL EIGENVALUES (ALPHA)  (1H = 27.2113834 eV)

       MO #        E(hartree)               E(eV)           FULLSYM    COMPSYM
       ----   --------------------   --------------------   -------   ---------
    1     1        -104.8914322716       -2854.2409789188     A'        A'  (1)
    2     2         -20.6405813841        -561.6587736416     A'        A'  (1)
    3     3         -10.6113566489        -288.7496941685     A'        A'  (1)
    4     4          -8.0780859694        -219.8158944503     A'        A'  (1)
    5     5          -8.0757388474        -219.7520260137     A'        A'  (1)
    6   108          -8.0755875573        -219.7479092026     A''       A'' (2)
    7     6          -1.4149084579         -38.5016165241     A'        A'  (1)
    8     7          -1.0630475941         -28.9269956560     A'        A'  (1)
    9     8          -0.7240784586         -19.7031765500     A'        A'  (1)
   10   109          -0.6145986798         -16.7240803138     A''       A'' (2)
   11     9          -0.6056751093         -16.4812576152     A'        A'  (1)
   12    10          -0.4677789434         -12.7289121761     A'        A'  (1)
   13   110          -0.4433549705         -12.0643020843     A''       A'' (2)
  +++++++++++++++++++++++++++++++++++++++++++++++++++++++++++++++++++++++++++++
   14    11           0.0284136721           0.7731753246     A'        A'  (1)
   15    12           0.0613724214           1.6700284899     A'        A'  (1)
   16    13           0.0804802146           2.1899779765     A'        A'  (1)
   17    14           0.0866982976           2.3591806160     A'        A'  (1)
   18   111           0.0869978471           2.3673317716     A''       A'' (2)
   19    15           0.0909108196           2.4738091677     A'        A'  (1)
   20   112           0.0915416377           2.4909746007     A''       A'' (2)
   21    16           0.1111585841           3.0247788495     A'        A'  (1)
   22   113           0.1166728309           3.1748291331     A''       A'' (2)
   23    17           0.1422225851           3.8700732925     A'        A'  (1)
   24    18           0.1747322763           4.7547069622     A'        A'  (1)
   25    19           0.2122322228           5.7751323856     A'        A'  (1)
   26    20           0.2182930405           5.9400556173     A'        A'  (1)
   27   114           0.2488389555           6.7712522221     A''       A'' (2)
   28    21           0.2725702757           7.4170142743     A'        A'  (1)
   29   115           0.2912540272           7.9254250015     A''       A'' (2)
   30    22           0.3229736587           8.7885600542     A'        A'  (1)
   31    23           0.3378896366           9.1944444496     A'        A'  (1)
   32   116           0.3898182499          10.6074938556     A''       A'' (2)
   33    24           0.3946796914          10.7397804017     A'        A'  (1)
   34   117           0.4200442550          11.4299852671     A''       A'' (2)
   35    25           0.4302490781          11.7076726221     A'        A'  (1)
   36    26           0.4599789036          12.5166623015     A'        A'  (1)
   37    27           0.5039308929          13.7126567332     A'        A'  (1)
   38   118           0.6133055271          16.6888918390     A''       A'' (2)
   39    28           0.6199080689          16.8685561366     A'        A'  (1)
   40    29           0.6854926952          18.6532045464     A'        A'  (1)
   41    30           0.7203778969          19.6024791442     A'        A'  (1)
   42    31           0.7353576588          20.0100991898     A'        A'  (1)
   43   119           0.7391089880          20.1121780472     A''       A'' (2)
   44   120           0.7824642518          21.2919347535     A''       A'' (2)
   45    32           0.8042833637          21.8856629712     A'        A'  (1)
   46    33           0.8853825321          24.0924835354     A'        A'  (1)
   47    34           0.8949406557          24.3525733015     A'        A'  (1)
   48   121           0.9003186897          24.4989170484     A''       A'' (2)
   49   122           0.9102104229          24.7680847932     A''       A'' (2)
   50   123           0.9263461308          25.2071597256     A''       A'' (2)
   51    35           0.9270449859          25.2261765395     A'        A'  (1)
   52    36           0.9389854652          25.5510934995     A'        A'  (1)
   53    37           0.9723320616          26.4585005205     A'        A'  (1)
   54    38           1.0083823657          27.4394791675     A'        A'  (1)
   55   124           1.0151401278          27.6233672210     A''       A'' (2)
   56    39           1.0184910919          27.7145515921     A'        A'  (1)
   57    40           1.1202519875          30.4836063378     A'        A'  (1)
   58   125           1.1334544053          30.8428623900     A''       A'' (2)
   59   126           1.2220121436          33.2526409592     A''       A'' (2)
   60    41           1.2349730996          33.6053265019     A'        A'  (1)
   61    42           1.2787728357          34.7971779130     A'        A'  (1)
   62    43           1.3422452133          36.5243491158     A'        A'  (1)
   63    44           1.3925042419          37.8919668130     A'        A'  (1)
   64   127           1.4133048843          38.4579810665     A''       A'' (2)
   65   128           1.5119661847          41.1426915391     A''       A'' (2)
   66   129           1.5527325010          42.2519994013     A''       A'' (2)
   67    45           1.5656023516          42.6022058406     A'        A'  (1)
   68    46           1.6727316326          45.5173417808     A'        A'  (1)
   69    47           1.7319810855          47.1296013588     A'        A'  (1)
   70    48           1.8261192832          49.6912319485     A'        A'  (1)
   71    49           1.9949259737          54.2846955243     A'        A'  (1)
   72   130           2.1816583917          59.3659429452     A''       A'' (2)
   73    50           2.2421791620          61.0127968282     A'        A'  (1)
   74   131           2.2558223856          61.3840478165     A''       A'' (2)
   75    51           2.3032487399          62.6745845264     A'        A'  (1)
   76    52           2.3264419267          63.3057032262     A'        A'  (1)
   77   132           2.3365246331          63.5800676155     A''       A'' (2)
   78    53           2.3753072851          64.6353972271     A'        A'  (1)
   79    54           2.4317553857          66.1714281359     A'        A'  (1)
   80   133           2.4589868636          66.9124343204     A''       A'' (2)
   81    55           2.4640271527          67.0495875601     A'        A'  (1)
   82   134           2.4781913381          67.4350146397     A''       A'' (2)
   83   135           2.4880112329          67.7022275627     A''       A'' (2)
   84    56           2.5126502371          68.3726889530     A'        A'  (1)
   85    57           2.5250302564          68.7095664048     A'        A'  (1)
   86   136           2.7545445529          74.9549679210     A''       A'' (2)
   87    58           2.7788484545          75.6163107063     A'        A'  (1)
   88   137           2.8947183914          78.7692919824     A''       A'' (2)
   89    59           2.9438383698          80.1059145484     A'        A'  (1)
   90    60           2.9740215585          80.9272408692     A'        A'  (1)
   91   138           3.0567695385          83.1789278785     A''       A'' (2)
   92    61           3.0696448245          83.5292822221     A'        A'  (1)
   93    62           3.1308698767          85.1953005896     A'        A'  (1)
   94   139           3.1346829863          85.2990605771     A''       A'' (2)
   95    63           3.2688585390          88.9501629863     A'        A'  (1)
   96    64           3.3285378499          90.5741195962     A'        A'  (1)
   97   140           3.3684126663          91.6591685124     A''       A'' (2)
   98    65           3.4746913411          94.5511582799     A'        A'  (1)
   99    66           3.7487373762         102.0083300109     A'        A'  (1)
  100    67           3.8390252354         104.4651875620     A'        A'  (1)
  101   141           4.1072513418         111.7639909821     A''       A'' (2)
  102   142           4.1379622410         112.5996770358     A''       A'' (2)
  103   143           4.3462374311         118.2671330853     A''       A'' (2)
  104    68           4.3591325356         118.6180267172     A'        A'  (1)
  105    69           4.5713274402         124.3921436231     A'        A'  (1)
  106    70           4.7005334022         127.9080165922     A'        A'  (1)
  107    71           4.8575988023         132.1819834125     A'        A'  (1)
  108    72           5.1134552522         139.1441913654     A'        A'  (1)
  109   144           5.2709412971         143.4296045154     A''       A'' (2)
  110    73           5.5035568133         149.7593945104     A'        A'  (1)
  111    74           5.8225517798         158.4396888470     A'        A'  (1)
  112    75           6.3063758601         171.6052113950     A'        A'  (1)
  113   145           6.6478805386         180.8980261338     A''       A'' (2)
  114    76           6.7011800089         182.3483784546     A'        A'  (1)
  115   146           6.7399173483         183.4024750484     A''       A'' (2)
  116    77           6.7817990161         184.5421331695     A'        A'  (1)
  117   147           7.1452134603         194.4311429434     A''       A'' (2)
  118   148           7.1955272351         195.8002503598     A''       A'' (2)
  119    78           7.2298253422         196.7335493009     A'        A'  (1)
  120    79           7.2545014279         197.4050197313     A'        A'  (1)
  121   149           7.2624556874         197.6214661357     A''       A'' (2)
  122    80           7.5888136667         206.5021182362     A'        A'  (1)
  123    81           7.8256907449         212.9478712284     A'        A'  (1)
  124    82           8.7880484418         239.1349554868     A'        A'  (1)
  125   150          10.3554827783         281.7870121729     A''       A'' (2)
  126    83          10.3564328167         281.8128640329     A'        A'  (1)
  127   151          10.3866125947         282.6340975404     A''       A'' (2)
  128    84          10.4436660371         284.1866006364     A'        A'  (1)
  129    85          10.6268542820         289.1714062045     A'        A'  (1)
  130   152          12.6789731172         345.0123986091     A''       A'' (2)
  131    86          12.7350401412         346.5380598964     A'        A'  (1)
  132    87          13.2303168772         360.0152250488     A'        A'  (1)
  133    88          18.2857824334         497.5814365643     A'        A'  (1)
  134   153          26.2095078874         713.1969678486     A''       A'' (2)
  135    89          26.6274334737         724.5693012111     A'        A'  (1)
  136    90          27.2329215039         741.0454681447     A'        A'  (1)
  137    91          29.1537833368         793.3147759377     A'        A'  (1)
  138   154          36.8946615158        1003.9547799206     A''       A'' (2)
  139    92          36.8949784114        1003.9634030870     A'        A'  (1)
  140   155          36.8950025682        1003.9640604279     A''       A'' (2)
  141    93          36.8998042282        1004.0947202393     A'        A'  (1)
  142   156          36.9037587515        1004.2023282878     A''       A'' (2)
  143    94          36.9039829045        1004.2084278001     A'        A'  (1)
  144    95          36.9079931909        1004.3175532427     A'        A'  (1)
  145   157          43.9181578020        1195.0738301716     A''       A'' (2)
  146    96          43.9477681172        1195.8795678108     A'        A'  (1)
  147   158          43.9636716937        1196.3123261284     A''       A'' (2)
  148    97          44.1029351450        1200.1018772956     A'        A'  (1)
  149    98          44.2534675742        1204.1980729397     A'        A'  (1)
  150   159          46.4856561300        1264.9390115536     A''       A'' (2)
  151    99          46.4861443408        1264.9522964456     A'        A'  (1)
  152   160          46.5064597743        1265.5051074941     A''       A'' (2)
  153   100          46.5367580332        1266.3295650344     A'        A'  (1)
  154   101          46.6248497816        1268.7266633748     A'        A'  (1)
  155   161          55.0186371908        1497.1332307454     A''       A'' (2)
  156   102          55.0806368705        1498.8203278007     A'        A'  (1)
  157   103          55.6575241168        1514.5182278358     A'        A'  (1)
  158   104         103.8910001176        2827.0178360083     A'        A'  (1)
  159   162         138.3374034797        3764.3521246480     A''       A'' (2)
  160   105         138.6346282336        3772.4400213816     A'        A'  (1)
  161   106         139.1385859897        3786.1534090998     A'        A'  (1)
  162   107         149.9817892790        4081.2119710880     A'        A'  (1)


  VSCF finished.

 @CHECKOUT-I, Total execution time (CPU/WALL):       71.66/      14.63 seconds.
--executable xvscf finished with status     0 in       14.65 seconds (walltime).
 --invoking executable--
/home/asmola/.local/bin/xvtran
 @GETMEM-I,  Allocated    3814 MB of main memory.
  Full RHF integral transformation
  Transformation of IIII integrals :
  1 pass through the AO integral file was required.
    15973179 AO integrals were read.
    17882101 MO integrals were written to HF2.
  Transformation of IIJJ integrals :
  1 pass through the AO integral file was required.
     7911260 AO integrals were read.
     8898120 MO integrals were written to HF2.
  Transformation of IJIJ integrals :
  1 pass through the AO integral file was required.
    15357665 AO integrals were read.
    17319555 MO integrals were written to HF2.
  Summary of active molecular orbitals: 
------------------------------------------------------------------------
 
  Index      Eigenvalue    Symmetry    Index      Eigenvalue    Symmetry
------------------------------------------------------------------------
     1      -104.8914323        1        82         7.2545014        1
     2       -20.6405814        1        83         7.5888137        1
     3       -10.6113566        1        84         7.8256907        1
     4        -8.0780860        1        85         8.7880484        1
     5        -8.0757388        1        86        10.3564328        1
     6        -1.4149085        1        87        10.4436660        1
     7        -1.0630476        1        88        10.6268543        1
     8        -0.7240785        1        89        12.7350401        1
     9        -0.6056751        1        90        13.2303169        1
    10        -0.4677789        1        91        18.2857824        1
    11        -8.0755876        2        92        26.6274335        1
    12        -0.6145987        2        93        27.2329215        1
    13        -0.4433550        2        94        29.1537833        1
    14         0.0284137        1        95        36.8949784        1
    15         0.0613724        1        96        36.8998042        1
    16         0.0804802        1        97        36.9039829        1
    17         0.0866983        1        98        36.9079932        1
    18         0.0909108        1        99        43.9477681        1
    19         0.1111586        1       100        44.1029351        1
    20         0.1422226        1       101        44.2534676        1
    21         0.1747323        1       102        46.4861443        1
    22         0.2122322        1       103        46.5367580        1
    23         0.2182930        1       104        46.6248498        1
    24         0.2725703        1       105        55.0806369        1
    25         0.3229737        1       106        55.6575241        1
    26         0.3378896        1       107       103.8910001        1
    27         0.3946797        1       108       138.6346282        1
    28         0.4302491        1       109       139.1385860        1
    29         0.4599789        1       110       149.9817893        1
    30         0.5039309        1       111         0.0869978        2
    31         0.6199081        1       112         0.0915416        2
    32         0.6854927        1       113         0.1166728        2
    33         0.7203779        1       114         0.2488390        2
    34         0.7353577        1       115         0.2912540        2
    35         0.8042834        1       116         0.3898182        2
    36         0.8853825        1       117         0.4200443        2
    37         0.8949407        1       118         0.6133055        2
    38         0.9270450        1       119         0.7391090        2
    39         0.9389855        1       120         0.7824643        2
    40         0.9723321        1       121         0.9003187        2
    41         1.0083824        1       122         0.9102104        2
    42         1.0184911        1       123         0.9263461        2
    43         1.1202520        1       124         1.0151401        2
    44         1.2349731        1       125         1.1334544        2
    45         1.2787728        1       126         1.2220121        2
    46         1.3422452        1       127         1.4133049        2
    47         1.3925042        1       128         1.5119662        2
    48         1.5656024        1       129         1.5527325        2
    49         1.6727316        1       130         2.1816584        2
    50         1.7319811        1       131         2.2558224        2
    51         1.8261193        1       132         2.3365246        2
    52         1.9949260        1       133         2.4589869        2
    53         2.2421792        1       134         2.4781913        2
    54         2.3032487        1       135         2.4880112        2
    55         2.3264419        1       136         2.7545446        2
    56         2.3753073        1       137         2.8947184        2
    57         2.4317554        1       138         3.0567695        2
    58         2.4640272        1       139         3.1346830        2
    59         2.5126502        1       140         3.3684127        2
    60         2.5250303        1       141         4.1072513        2
    61         2.7788485        1       142         4.1379622        2
    62         2.9438384        1       143         4.3462374        2
    63         2.9740216        1       144         5.2709413        2
    64         3.0696448        1       145         6.6478805        2
    65         3.1308699        1       146         6.7399173        2
    66         3.2688585        1       147         7.1452135        2
    67         3.3285378        1       148         7.1955272        2
    68         3.4746913        1       149         7.2624557        2
    69         3.7487374        1       150        10.3554828        2
    70         3.8390252        1       151        10.3866126        2
    71         4.3591325        1       152        12.6789731        2
    72         4.5713274        1       153        26.2095079        2
    73         4.7005334        1       154        36.8946615        2
    74         4.8575988        1       155        36.8950026        2
    75         5.1134553        1       156        36.9037588        2
    76         5.5035568        1       157        43.9181578        2
    77         5.8225518        1       158        43.9636717        2
    78         6.3063759        1       159        46.4856561        2
    79         6.7011800        1       160        46.5064598        2
    80         6.7817990        1       161        55.0186372        2
    81         7.2298253        1       162       138.3374035        2
------------------------------------------------------------------------
  -104.891432271643       -20.6405813840967       -10.6113566489403     
  -8.07808596935468       -8.07573884735621       -1.41490845791035     
  -1.06304759411662      -0.724078458648567      -0.605675109307329     
 -0.467778943430556       -8.07558755732324      -0.614598679824080     
 -0.443354970491089       2.841367207511464E-002  6.137242143787710E-002
  8.048021463162801E-002  8.669829759423449E-002  9.091081961395459E-002
  0.111158584074458       0.142222585144422       0.174732276279748     
  0.212232222840777       0.218293040450604       0.272570275654151     
  0.322973658671207       0.337889636642705       0.394679691358468     
  0.430249078117087       0.459978903590578       0.503930892876752     
  0.619908068937626       0.685492695178024       0.720377896854119     
  0.735357658801381       0.804283363676210       0.885382532053669     
  0.894940655663346       0.927044985866601       0.938985465158677     
  0.972332061608600        1.00838236572189        1.01849109193417     
   1.12025198754886        1.23497309960175        1.27877283567297     
   1.34224521329641        1.39250424192106        1.56560235157291     
   1.67273163262979        1.73198108549043        1.82611928317092     
   1.99492597367681        2.24217916198209        2.30324873987691     
   2.32644192673523        2.37530728508063        2.43175538572281     
   2.46402715269897        2.51265023714310        2.52503025644662     
   2.77884845451464        2.94383836980368        2.97402155853476     
   3.06964482452776        3.13086987667264        3.26885853904380     
   3.32853784994336        3.47469134112159        3.74873737624319     
   3.83902523537265        4.35913253558395        4.57132744023216     
   4.70053340221521        4.85759880228976        5.11345525216608     
   5.50355681330193        5.82255177981724        6.30637586014900     
   6.70118000890020        6.78179901612448        7.22982534217151     
   7.25450142793048        7.58881366671621        7.82569074486504     
   8.78804844177104        10.3564328167493        10.4436660370731     
   10.6268542820384        12.7350401411929        13.2303168771944     
   18.2857824334031        26.6274334737103        27.2329215038976     
   29.1537833367803        36.8949784113895        36.8998042282301     
   36.9039829044508        36.9079931909212        43.9477681171752     
   44.1029351449865        44.2534675741520        46.4861443408141     
   46.5367580331999        46.6248497816100        55.0806368705486     
   55.6575241167558        103.891000117558        138.634628233622     
   139.138585989709        149.981789278968       8.699784706831276E-002
  9.154163770492110E-002  0.116672830866928       0.248838955467662     
  0.291254027220709       0.389818249946625       0.420044254975008     
  0.613305527090586       0.739108988014383       0.782464251836557     
  0.900318689728320       0.910210422935435       0.926346130772533     
   1.01514012775156        1.13345440533381        1.22201214360823     
   1.41330488425270        1.51196618467900        1.55273250096199     
   2.18165839173019        2.25582238558564        2.33652463312325     
   2.45898686358008        2.47819133810354        2.48801123292764     
   2.75454455288902        2.89471839136297        3.05676953853479     
   3.13468298627853        3.36841266630907        4.10725134180929     
   4.13796224104451        4.34623743110847        5.27094129714260     
   6.64788053861944        6.73991734828323        7.14521346031350     
   7.19552723511262        7.26245568741163        10.3554827783169     
   10.3866125946554        12.6789731171512        26.2095078873727     
   36.8946615158330        36.8950025682223        36.9037587514850     
   43.9181578019893        43.9636716936787        46.4856561299847     
   46.5064597742626        55.0186371908383        138.337403479750     
 @CHECKOUT-I, Total execution time (CPU/WALL):       33.66/      18.72 seconds.
--executable xvtran finished with status     0 in       18.73 seconds (walltime).
 --invoking executable--
/home/asmola/.local/bin/xintprc
 @GETMEM-I,  Allocated    3814 MB of main memory.
  Processing integrals for CCSD calculation.
  @GMOIAA-I, Processing MO integrals for spin case AA.
  @GMOIAA-I, Generation of integral list completed.
                      TYPE                NUMBER
                      ----               --------
                      PPPP              31521136
                      PPPH              10994190
                      PPHH                963767
                      PHPH                525311
                      PHHH                 93016
                      HHHH                  2356

                     TOTAL              44099776

  @FORMT2-I, Second-order MP correlation energies:
            ------------------------------------------------
            E(SCF)                  =   -534.924702160170 a.u.
            E2(AA)                  =     -0.107409663516 a.u.
            E2(AB)                  =     -0.629930233803 a.u.
            E2(TOT)                 =     -0.844749560835 a.u.
            Total MP2 energy        =   -535.769451721006 a.u.
            ------------------------------------------------
   Largest T2 amplitudes for spin case AB:
       _       _                 _       _                 _       _
   i   j   a   b             i   j   a   b             i   j   a   b
-----------------------------------------------------------------------------
[  9   9  20  20]-0.02477 [  9   9  20  15] 0.02046 [  9   9  15  20] 0.02046
[  9   9  21  20]-0.01870 [  9   9  20  21]-0.01870 [  9   9  15  15]-0.01863
[ 13  13 117 117]-0.01796 [  9   9  21  21]-0.01771 [  9   9  21  15] 0.01706
[  9   9  15  21] 0.01706 [ 13  13 118 118]-0.01569 [ 10  10 122 122]-0.01547
[ 10  10 116 116]-0.01434 [ 13  13 116 116]-0.01365 [ 13  13 122 122]-0.01339
-----------------------------------------------------------------------------
   Norm of T2AB vector (  1925597 symmetry allowed elements):  0.3244207763.
-----------------------------------------------------------------------------
 @CHECKOUT-I, Total execution time (CPU/WALL):        5.77/       8.98 seconds.
--executable xintprc finished with status     0 in        8.99 seconds (walltime).
  calling xvcc 
 --invoking executable--
/home/asmola/.local/bin/xvcc
 @GETMEM-I,  Allocated    3814 MB of main memory.
   CCSD energy will be calculated.
   The total correlation energy is -0.844749560835 a.u.
   The total correlation energy is -0.845963148327 a.u.
  Convergence information after     1 iterations: 
  Largest element of residual vector : -0.12163386E-01.
  Largest element of DIIS residual   : -0.12163386E-01.
   The total correlation energy is -0.859527880027 a.u.
  Convergence information after     2 iterations: 
  Largest element of residual vector : -0.31444986E-02.
  Largest element of DIIS residual   : -0.29234626E-02.
   The total correlation energy is -0.859452993980 a.u.
  Convergence information after     3 iterations: 
  Largest element of residual vector : -0.19260913E-02.
  Largest element of DIIS residual   : -0.96174259E-03.
   The total correlation energy is -0.860735155272 a.u.
  Convergence information after     4 iterations: 
  Largest element of residual vector :  0.25783396E-03.
  Largest element of DIIS residual   :  0.25881482E-03.
   The total correlation energy is -0.860859789901 a.u.
  Convergence information after     5 iterations: 
  Largest element of residual vector : -0.21727542E-03.
  Largest element of DIIS residual   : -0.16325333E-03.
   The total correlation energy is -0.860860726678 a.u.
  Convergence information after     6 iterations: 
  Largest element of residual vector :  0.10027965E-03.
  Largest element of DIIS residual   :  0.82864075E-04.
   The total correlation energy is -0.860861537267 a.u.
  Convergence information after     7 iterations: 
  Largest element of residual vector : -0.71847213E-04.
  Largest element of DIIS residual   : -0.51435336E-04.
   The total correlation energy is -0.860861429474 a.u.
  Convergence information after     8 iterations: 
  Largest element of residual vector : -0.36193983E-04.
  Largest element of DIIS residual   :  0.24403122E-04.
   The total correlation energy is -0.860860995701 a.u.
  Convergence information after     9 iterations: 
  Largest element of residual vector : -0.19140887E-04.
  Largest element of DIIS residual   : -0.11126130E-04.
   The total correlation energy is -0.860861839844 a.u.
  Convergence information after    10 iterations: 
  Largest element of residual vector : -0.96783502E-05.
  Largest element of DIIS residual   : -0.49182568E-05.
   The total correlation energy is -0.860862084121 a.u.
  Convergence information after    11 iterations: 
  Largest element of residual vector : -0.28972003E-05.
  Largest element of DIIS residual   :  0.16755340E-05.
   The total correlation energy is -0.860862263761 a.u.
  Convergence information after    12 iterations: 
  Largest element of residual vector : -0.15767634E-05.
  Largest element of DIIS residual   : -0.89576208E-06.
   The total correlation energy is -0.860862331251 a.u.
  Convergence information after    13 iterations: 
  Largest element of residual vector :  0.48520367E-06.
  Largest element of DIIS residual   : -0.47521485E-06.
   The total correlation energy is -0.860862343487 a.u.
  Convergence information after    14 iterations: 
  Largest element of residual vector : -0.28735857E-06.
  Largest element of DIIS residual   : -0.19942993E-06.
   The total correlation energy is -0.860862346198 a.u.
  Convergence information after    15 iterations: 
  Largest element of residual vector :  0.16102947E-06.
  Largest element of DIIS residual   :  0.14333645E-06.
   The total correlation energy is -0.860862345881 a.u.
  Convergence information after    16 iterations: 
  Largest element of residual vector : -0.10314948E-06.
  Largest element of DIIS residual   :  0.78430845E-07.
   The total correlation energy is -0.860862346624 a.u.
  Convergence information after    17 iterations: 
  Largest element of residual vector : -0.66762876E-07.
  Largest element of DIIS residual   : -0.48421910E-07.
   The total correlation energy is -0.860862346796 a.u.
  Convergence information after    18 iterations: 
  Largest element of residual vector : -0.32075929E-07.
  Largest element of DIIS residual   : -0.24102793E-07.
   The total correlation energy is -0.860862347005 a.u.
  Convergence information after    19 iterations: 
  Largest element of residual vector : -0.18951434E-07.
  Largest element of DIIS residual   : -0.11803599E-07.
   The total correlation energy is -0.860862347223 a.u.
  Convergence information after    20 iterations: 
  Largest element of residual vector : -0.83938136E-08.
  Largest element of DIIS residual   : -0.47981860E-08.
  Amplitude equations converged in    20iterations.
   The total correlation energy is -0.860862347305 a.u.
   The CC iterations have converged.

   Largest T1 amplitudes for spin case AA:
   i       a                 i       a                 i       a    
-----------------------------------------------------------------------------
[ 12     117    ]-0.01467 [ 12     114    ]-0.01112 [  9      42    ]-0.00899
[...]
 term  0.491887793271204     
 final tnorm  0.845887065297841     
  norm contr. I: |<0|L dT/dx|0>|^2   0.000000000000000E+000
  norm contr. II: <0|[nabla(1+L)e-T][nabla e^T]|0>  0.491887793271204     
  total norm contribution  0.491887793271204     
 oo  2.176521577246617E-003
 vv  -1.65701159306907     
 vo -2.560638408592882E-002
  Correlated perturbed 1-el contribution to DBOC  -1.68044145557775       cm**-1
  SUM_I |dc_I/dx|^2 contribution to DBOC  0.847022078540740       cm**-1
 
 
  The total diagonal Born-Oppenheimer correction (DBOC) is:      0.0087316120 a.u.
  The total diagonal Born-Oppenheimer correction (DBOC) is:       1916.367334 cm-1
 
 Total CC energy including DBOC  -535.776832895433     
 First-order density matrix is being calculated  (Symmetry block 2, perturbation   3)
 Calculation of the contributions of <pq||rs> to dI(i,j)/dx required   2.1 seconds.
 Calculation of the contributions of <pq||rs> to dI(a,b)/dx required   9.2 seconds.
 Calculation of the contributions of <pq||rs> to dI(i,a)/dx required   6.0 seconds.
 First-order Z-vector equations are solved for 1 perturbation.
 Convergence reached after  21 iterations.
        U*G(pq,rs) contribution is being calculated
             (Symmetry block 2, perturbation   3)

 CCSD contribution to force constants 

        0.0000000000        0.0000000000        0.0000000000
        0.0000000000        0.0000000000        0.0000000000
        0.0000000000        0.0000000000        0.0000000000
        0.0000000000        0.0000000000        0.0000000000
        0.0000000000        0.0000000000        0.0000000000
        0.0000000000        0.0000000000        0.0000000000
        0.0000000000        0.0000000000        0.0000000000
        0.0000000000        0.0000000000        0.0000000000
        0.0000000000        0.0000000000        0.0000000000
        0.0000000000        0.0000000000        0.0000000000
        0.0000000000        0.0000000000        0.0000000000
        0.0000000000        0.0000000000        0.0000000000
        0.0000000000        0.0000000000        0.0000000000
        0.0000000000        0.0000000000        0.0000000000
        0.0000000000        0.0000000000        0.0000000000
        0.0000000000        0.0000000000        0.0000000000
        0.0000000000        0.0000000000        0.0000000000
        0.0000000000        0.0000000000        0.0000000000
        0.0000000000        0.0000000000        0.0000000000
        0.0000000000        0.0000000000        0.0000000000
        0.0000000000        0.0000000000        0.0000000000
        0.0000000000        0.0000000000        0.0000000000
        0.0000000000        0.0000000000        0.0000000000
        0.0000000000        0.0000000000        0.0000000000
        0.0000000000        0.0000000000        0.0000000000
        0.0000000000        0.0000000000        0.0000000000
        0.0630796414        0.0704202956       -0.1334999370

 CCSD contribution to dipole derivatives 

        0.0000000000        0.0000000000        0.0000000000
        0.0000000000        0.0000000000        0.0000000000
        0.0000000000        0.0000000000        0.0000000000
        0.0000000000        0.0000000000        0.0000000000
        0.0000000000        0.0000000000        0.0000000000
        0.0000000000        0.0000000000        0.0000000000
        0.0000000000        0.0000000000        0.0000000000
        0.0000000000        0.0000000000        0.0000000000
        0.0000000000        0.0000000000        0.0128147535
 @CHECKOUT-I, Total execution time (CPU/WALL):      850.66/     154.65 seconds.
--executable xsdcc finished with status     0 in      154.70 seconds (walltime).
 --invoking executable--
/home/asmola/.local/bin/xanti
 @GETMEM-I,  Allocated    3814 MB of main memory.
 CCSD MO derivative gammas will be sorted to Mulliken order.
 @CHECKOUT-I, Total execution time (CPU/WALL):        5.60/       6.52 seconds.
--executable xanti finished with status     0 in        6.55 seconds (walltime).
 --invoking executable--
/home/asmola/.local/bin/xbcktrn
 @GETMEM-I,  Allocated    3814 MB of main memory.
 CCSD MO derivative gammas will be transformed to the AO basis.
 @CHECKOUT-I, Total execution time (CPU/WALL):       11.50/       1.53 seconds.
--executable xbcktrn finished with status     0 in        1.56 seconds (walltime).
 --invoking executable--
/home/asmola/.local/bin/xvdint
 @GETMEM-I,  Allocated    3814 MB of main memory.
 One- and two-electron integral derivatives are calculated
 for RHF-CC/MBPT hessians and dipole derivatives.
 Spherical gaussians are used.
  magnet F F
 Evaluation of 2el integral derivatives

                      Two-electron integral gradient
                      ------------------------------

                         O #1 x     0.0000000000
                         O #1 y     0.0000000000
                         H #2 x     0.0000000000
                         H #2 y     0.0000000000
                         CL#3 x     0.0000000000
                         CL#3 y     0.0000000000


 O #1       0.0000000000            0.0000000000           -0.0939859397
 H #2       0.0000000000            0.0000000000            0.0058861434
 CL#3       0.0000000000            0.0000000000            0.0880997963


 Evaluation of 2e integral derivatives required  112.88 seconds.
  contribution to Hessian
        0.0000000000        0.0000000000        0.0000000000
        0.0000000000        0.0000000000        0.0000000000
       -0.0939859397        0.0058861434        0.0880997963
 @CHECKOUT-I, Total execution time (CPU/WALL):      112.88/      20.77 seconds.
--executable xvdint finished with status     0 in       20.80 seconds (walltime).
 --invoking executable--
/home/asmola/.local/bin/xanti
 @GETMEM-I,  Allocated    3814 MB of main memory.
 CCSD MO gammas will be sorted to Mulliken order.
 @CHECKOUT-I, Total execution time (CPU/WALL):        6.22/       4.74 seconds.
--executable xanti finished with status     0 in        4.75 seconds (walltime).
 --invoking executable--
/home/asmola/.local/bin/xbcktrn
 @GETMEM-I,  Allocated    3814 MB of main memory.
 CCSD MO gammas will be transformed to the AO basis.
 @CHECKOUT-I, Total execution time (CPU/WALL):       17.70/       3.00 seconds.
--executable xbcktrn finished with status     0 in        3.03 seconds (walltime).
 --invoking executable--
/home/asmola/.local/bin/xvdint
 @GETMEM-I,  Allocated    3814 MB of main memory.
 One- and two-electron integral derivatives are calculated
 for RHF-CC/MBPT hessians and dipole derivatives.
 Spherical gaussians are used.
  magnet F F

                     Kinetic energy integral gradient
                     --------------------------------

                         O #1 x     0.0424293589
                         O #1 y    -0.5872638371
                         H #2 x     0.2981786531
                         H #2 y     0.6125750821
                         CL#3 x    -0.3406080120
                         CL#3 y    -0.0253112450


 O #1       0.0424293589           -0.5872638371            0.0000000000
 H #2       0.2981786531            0.6125750821            0.0000000000
 CL#3      -0.3406080120           -0.0253112450            0.0000000000



                   Nuclear attraction integral gradient
                   ------------------------------------

                         O #1 x   -23.6015002679
                         O #1 y     6.3981959378
                         H #2 x    -4.5141115446
                         H #2 y    -6.6552189136
                         CL#3 x    28.1156118125
                         CL#3 y     0.2570229757


 O #1     -23.6015002679            6.3981959378            0.0000000000
 H #2      -4.5141115446           -6.6552189136            0.0000000000
 CL#3      28.1156118125            0.2570229757            0.0000000000



                      Reorthonormalization gradient
                      -----------------------------

                         O #1 x     0.0000000000
                         O #1 y     0.0000000000
                         H #2 x     0.0000000000
                         H #2 y     0.0000000000
                         CL#3 x     0.0000000000
                         CL#3 y     0.0000000000


 O #1       0.0000000000            0.0000000000            0.0000000000
 H #2       0.0000000000            0.0000000000            0.0000000000
 CL#3       0.0000000000            0.0000000000            0.0000000000



                     Kinetic energy integral Hessian
                     -------------------------------


           Symmetry 1

           O #1 x      O #1 y      H #2 x      H #2 y      CL#3 x      CL#3 y

 O #1 x   -0.125304
 O #1 y    0.430931    0.138417
 H #2 x    0.492702   -0.424635   -0.496481
 H #2 y   -0.424635   -0.350772    0.436883    0.354575
 CL#3 x   -0.367398   -0.006297    0.003779   -0.012248    0.363619
 CL#3 y   -0.006297    0.212355   -0.012248   -0.003803    0.018545   -0.208551


           Symmetry 2

           O #1 z      H #2 z      CL#3 z

 O #1 z   -0.931623
 H #2 z    0.729313   -0.734485
 CL#3 z    0.202310    0.005172   -0.207482




           O #1 x      O #1 y      O #1 z      H #2 x      H #2 y      H #2 z

 O #1 x   -0.125304
 O #1 y    0.430931    0.138417
 O #1 z    0.000000    0.000000   -0.931623

 H #2 x    0.492702   -0.424635    0.000000   -0.496481
 H #2 y   -0.424635   -0.350772    0.000000    0.436883    0.354575
 H #2 z    0.000000    0.000000    0.729313    0.000000    0.000000   -0.734485

 CL#3 x   -0.367398   -0.006297    0.000000    0.003779   -0.012248    0.000000
 CL#3 y   -0.006297    0.212355    0.000000   -0.012248   -0.003803    0.000000
 CL#3 z    0.000000    0.000000    0.202310    0.000000    0.000000    0.005172


           CL#3 x      CL#3 y      CL#3 z

 CL#3 x    0.363619
 CL#3 y    0.018545   -0.208551
 CL#3 z    0.000000    0.000000   -0.207482




                   Nuclear attraction integral Hessian
                   -----------------------------------


           Symmetry 1

           O #1 x      O #1 y      H #2 x      H #2 y      CL#3 x      CL#3 y

 O #1 x   -8.711741
 O #1 y   -2.200554    9.709276
 H #2 x   -5.601868    3.112362    5.134735
 H #2 y    3.124022    0.556025   -3.934366   -0.664936
 CL#3 x   14.313608   -0.911808    0.467133    0.810344  -14.780741
 CL#3 y   -0.923468  -10.265301    0.822004    0.108911    0.101464   10.156390


           Symmetry 2

           O #1 z      H #2 z      CL#3 z

 O #1 z   17.005426
 H #2 z   -7.334697    7.792919
 CL#3 z   -9.670729   -0.458222   10.128952




           O #1 x      O #1 y      O #1 z      H #2 x      H #2 y      H #2 z

 O #1 x   -8.711741
 O #1 y   -2.200554    9.709276
 O #1 z    0.000000    0.000000   17.005426

 H #2 x   -5.601868    3.112362    0.000000    5.134735
 H #2 y    3.124022    0.556025    0.000000   -3.934366   -0.664936
 H #2 z    0.000000    0.000000   -7.334697    0.000000    0.000000    7.792919

 CL#3 x   14.313608   -0.911808    0.000000    0.467133    0.810344    0.000000
 CL#3 y   -0.923468  -10.265301    0.000000    0.822004    0.108911    0.000000
 CL#3 z    0.000000    0.000000   -9.670729    0.000000    0.000000   -0.458222


           CL#3 x      CL#3 y      CL#3 z

 CL#3 x  -14.780741
 CL#3 y    0.101464   10.156390
 CL#3 z    0.000000    0.000000   10.128952




                Highest order reorthonormalization Hessian
                ------------------------------------------


           Symmetry 1

           O #1 x      O #1 y      H #2 x      H #2 y      CL#3 x      CL#3 y

 O #1 x    0.000000
 O #1 y    0.000000    0.000000
 H #2 x    0.000000    0.000000    0.000000
 H #2 y    0.000000    0.000000    0.000000    0.000000
 CL#3 x    0.000000    0.000000    0.000000    0.000000    0.000000
 CL#3 y    0.000000    0.000000    0.000000    0.000000    0.000000    0.000000


           Symmetry 2

           O #1 z      H #2 z      CL#3 z

 O #1 z    0.000000
 H #2 z    0.000000    0.000000
 CL#3 z    0.000000    0.000000    0.000000




           O #1 x      O #1 y      O #1 z      H #2 x      H #2 y      H #2 z


           CL#3 x      CL#3 y      CL#3 z




                Electronic contributions to dipole moment
                -----------------------------------------

                               au             Debye

                    x      1.70370793      4.33039438
                    y      0.21473016      0.54578971

  Conversion factor used: 1 a.u. =   2.54174691 Debye 



   Electronic contributions to static part of dipole moment derivatives
   --------------------------------------------------------------------


                     Total dipole moment derivatives
                     -------------------------------


           Symmetry 1
                              Ex             Ey

               O #1 x    -8.84654295    -0.07291278
               O #1 y    -0.26154818    -8.78185983
               H #2 x    -0.35163313     0.11227196
               H #2 y     0.33278324    -0.35352552
               CL#3 x   -16.80182393    -0.03935918
               CL#3 y    -0.07123506   -16.86461465

           Symmetry 2
                              Ez

               O #1 z    -8.40145564
               H #2 z    -0.72187025
               CL#3 z   -16.87667410



                       Ex          Ey          Ez

      O #1    x   -8.846543   -0.072913    0.000000
      O #1    y   -0.261548   -8.781860    0.000000
      O #1    z    0.000000    0.000000   -8.401456

      H #2    x   -0.351633    0.112272    0.000000
      H #2    y    0.332783   -0.353526    0.000000
      H #2    z    0.000000    0.000000   -0.721870

      CL#3    x  -16.801824   -0.039359    0.000000
      CL#3    y   -0.071235  -16.864615    0.000000
      CL#3    z    0.000000    0.000000  -16.876674

 Evaluation of 1e integral derivatives required    1.54 seconds.
 Evaluation of 2el integral derivatives

                      Two-electron integral gradient
                      ------------------------------

                         O #1 x    10.8433008897
                         O #1 y    -2.7320277963
                         H #2 x     2.3849823165
                         H #2 y     3.0769484386
                         CL#3 x   -13.2282832062
                         CL#3 y    -0.3449206423


 O #1      10.8433008897           -2.7320277963            0.0000000000
 H #2       2.3849823165            3.0769484386            0.0000000000
 CL#3     -13.2282832062           -0.3449206423            0.0000000000


 Evaluation of 2e integral derivatives required  291.61 seconds.

                            Molecular gradient
                            ------------------

                         O #1 x    -0.0442810790
                         O #1 y     0.2323602246
                         H #2 x    -0.1248213088
                         H #2 y    -0.2563803152
                         CL#3 x     0.1691023878
                         CL#3 y     0.0240200905


 O #1      -0.0442810790            0.2323602246            0.0000000000
 H #2      -0.1248213088           -0.2563803152            0.0000000000
 CL#3       0.1691023878            0.0240200905            0.0000000000


  Molecular gradient norm 0.408E+00

                            Molecular hessian
                            -----------------


           Symmetry 1

           O #1 x      O #1 y      H #2 x      H #2 y      CL#3 x      CL#3 y

 O #1 x    2.621245
 O #1 y    2.473805    9.185086
 H #2 x   -0.955459   -4.391823    1.050568
 H #2 y   -2.657213   -9.153921    2.918790    8.628640
 CL#3 x   -1.665785    0.460330   -0.360642   -0.217453    2.026427
 CL#3 y    0.183407   -0.031166   -0.192708    0.016339    0.009300    0.014827


           Symmetry 2

           O #1 z      H #2 z      CL#3 z

 O #1 z   -3.194782
 H #2 z    3.308692   -3.510534
 CL#3 z   -0.113910    0.066441    0.047469




           O #1 x      O #1 y      O #1 z      H #2 x      H #2 y      H #2 z

 O #1 x    2.621245
 O #1 y    2.473805    9.185086
 O #1 z    0.000000    0.000000   -3.194782

 H #2 x   -0.955459   -4.391823    0.000000    1.050568
 H #2 y   -2.657213   -9.153921    0.000000    2.918790    8.628640
 H #2 z    0.000000    0.000000    3.308692    0.000000    0.000000   -3.510534

 CL#3 x   -1.665785    0.460330    0.000000   -0.360642   -0.217453    0.000000
 CL#3 y    0.183407   -0.031166    0.000000   -0.192708    0.016339    0.000000
 CL#3 z    0.000000    0.000000   -0.113910    0.000000    0.000000    0.066441


           CL#3 x      CL#3 y      CL#3 z

 CL#3 x    2.026427
 CL#3 y    0.009300    0.014827
 CL#3 z    0.000000    0.000000    0.047469




                           Total dipole moment
                           -------------------

                               au             Debye

                    x     -0.14846627     -0.37736369
                    y     -0.57633364     -1.46489425

  Conversion factor used: 1 a.u. =   2.54174691 Debye 



                     Total dipole moment derivatives
                     -------------------------------


           Symmetry 1
                              Ex             Ey

               O #1 x    -0.47233703    -0.05289381
               O #1 y    -0.17005757    -0.17897929
               H #2 x     0.24775341     0.02167712
               H #2 y     0.11158780     0.20318048
               CL#3 x     0.22458386     0.03121661
               CL#3 y     0.05846984    -0.02420120

           Symmetry 2
                              Ez

               O #1 z    -0.34438703
               H #2 z     0.33241147
               CL#3 z     0.01197574



                       Ex          Ey          Ez

      O #1    x   -0.472337   -0.052894    0.000000
      O #1    y   -0.170058   -0.178979    0.000000
      O #1    z    0.000000    0.000000   -0.344387

      H #2    x    0.247753    0.021677    0.000000
      H #2    y    0.111588    0.203180    0.000000
      H #2    z    0.000000    0.000000    0.332411

      CL#3    x    0.224584    0.031217    0.000000
      CL#3    y    0.058470   -0.024201    0.000000
      CL#3    z    0.000000    0.000000    0.011976

  Molecular gradient does not satisfy rotational invariance condition.
   rotational invariance in yz-plane :        0.0000E+00
   rotational invariance in xz-plane :        0.0000E+00
   rotational invariance in xy-plane :        -.2889E-01
 @CHECKOUT-I, Total execution time (CPU/WALL):      293.14/      42.73 seconds.
--executable xvdint finished with status     0 in       42.76 seconds (walltime).
 --invoking executable--
/home/asmola/.local/bin/xjoda
  @GTFLGS-I, Hessian will be transformed to curvilinear coordinates.
  @GTFLGS-I, Hessian will be transformed to curvilinear coordinates.
  igrd and ihes are                      0                     1
  gradient from JOBARC 
  -0.044281078969795   0.232360224639498   0.000000000000000
  -0.124821308835034  -0.256380315184059   0.000000000000000
   0.169102387804813   0.024020090544560   0.000000000000000
 
  @PROJFCM-I, Projecting force constant matrix onto totally symmetric subspace.
  Largest difference between matrix elements of symmetrized
  and unsymmetrized FCM :     0.0000000000E+00.
 
  Summary of diagonal Born-Oppenheimer correction at the correlated level
  The total diagonal Born-Oppenheimer correction (DBOC) is:      0.0087316120 a.u.
  The total diagonal Born-Oppenheimer correction (DBOC) is:       1916.367334 cm-1
  The total diagonal Born-Oppenheimer correction (DBOC) is:            22.925 kJ/mole
  hellooooooo 
  readis is  F
 
 @CHECKOUT-I, Total execution time (CPU/WALL):        0.01/       0.01 seconds.
--executable xjoda finished with status     0 in        0.02 seconds (walltime).
  The final electronic energy is      -535.776832895432676 a.u. 
  This computation required                         1834.78 seconds (walltime).
