 --invoking executable--
/home/asmola/.local/bin/xjoda


   *************************************************************************
         <<<     CCCCCC     CCCCCC   |||     CCCCCC     CCCCCC   >>>
       <<<      CCC        CCC       |||    CCC        CCC         >>>
      <<<      CCC        CCC        |||   CCC        CCC            >>>
    <<<        CCC        CCC        |||   CCC        CCC              >>>
      <<<      CCC        CCC        |||   CCC        CCC            >>>
       <<<      CCC        CCC       |||    CCC        CCC         >>>
         <<<     CCCCCC     CCCCCC   |||     CCCCCC     CCCCCC   >>>
   *************************************************************************

     ****************************************************************
     * CFOUR Coupled-Cluster techniques for Computational Chemistry *
     ****************************************************************
 

   Department of Chemistry                Institut fuer Physikalische Chemie
   University of Florida                  Universitaet Mainz
   Gainesville, FL 32611, USA             D-55099 Mainz, Germany

   Department of Chemistry                Fakultaet fuer Chemie und Biowiss.
   Johns Hopkins University               Karlsruher Institut fuer Technologie
   Baltimore, MD 21218, USA               D-76131 Karlsruhe, Germany

   Department of Chemistry                Department of Physical Chemistry
   Southern Methodist University          Eotvos Lorand University
   Dallas, TX 75275, USA                  H-1053 Budapest, Hungary

 
                       Version 2.1
 
                     vincent.theory.phys.ucl.ac.uk                     
                     Mon 20 Jan 10:37:01 GMT 2025                      
                     integer*8 version is running
 
********************************************************************************
*                          Input from ZMAT file                                *
********************************************************************************
Hypochlorous acid higher-order corrections                                      
O                                                                               
H 1 ROH                                                                         
CL 1 ROCL 2 A                                                                   
                                                                                
ROH=0.96                                                                        
ROCL=1.683                                                                      
A=106.000000                                                                    
                                                                                
                                                                                
*CFOUR(CALC=CCSD,BASIS=cc-pVTZ,SCF_CONV=10,CC_CONV=8,DBOC=ON,MEMORY=500000000)  
********************************************************************************
  @GTFLGS-I, Hessian will be transformed to curvilinear coordinates.
    -------------------------------------------------------------------
                    CFOUR Control Parameters 
    -------------------------------------------------------------------
        External           Internal           Value            Units
          Name               Name
    -------------------------------------------------------------------
       ABCDTYPE             IABCDT         STANDARD    [  0]    ***   
       ANHARMONIC           IANHAR         OFF         [  0]    ***   
       ANH_ALGORIT          IANALG         STANDARD    [  0]    ***   
       ANH_DERIVAT          IANDER         SECOND      [  1]    ***   
       ANH_MODE             ANHMOD         VIBRATION   [  0]    ***   
       ANH_STEPSIZ          ICUBST             50000          x 10-6  
       ANH_SYMMETR          IANHSM         ABELIAN     [  0]    ***   
       AO_LADDERS           IAOLAD         SINGLEPASS  [  1]    ***   
       AV_SCF               IAVSCF         OFF         [  0]    ***   
       BASIS                IBASIS         PVTZ        [ 14]    ***   
       BOTHVECTORS          BOTHVC         OFF         [  0]    ***   
       BOX_POTENT           IPIAB          OFF         [  0]    ***   
       BREIT                IBREIT         OFF         [  0]    ***   
       BRUCK_CONV           IBRTOL          10D-  4             ***   
       BRUECKNER            IBRKNR         OFF         [  0]    ***   
       BUFFERSIZE           IBUFFS              4096            ***   
       CACHE_RECS           ICHREC             10               ***   
       CALCLEVEL            ICLLVL         CCSD        [ 10]    ***   
       CCORBOPT             ICCORB         OFF         [  0]  x 0.01  
       CC_CONV              ICCCNV          10D-  8             ***   
       CC_EXPORDER          ICCEOR              5               ***   
       CC_EXTRAPOL          ICCEXT         DIIS        [  1]    ***   
       CC_GUESS             ICCGES         MP2         [  0]    ***   
       CC_MAXCYC            ICCCYC            100              cycles 
       CC_PROGRAM           ICCPRO         VCC         [  0]    ***   
       CHARGE               ICHRGE              0               ***   
       CHOLESKY             ICHOLE         OFF         [  0]    ***   
       CIS_CONV             ICISTL              5               ***   
       COMM_SIZE            IPSIZE            ***               ***   
       CONSTANT             ICONST         OLD         [  1]    ***   
       CONTINUUM            ICONTU         NONE        [  0]    ***   
       CONTRACTION          ICNTYP         GENERAL     [  1]    ***   
       COORDINATES          ICOORD         INTERNAL    [  0]    ***   
       CPHF_CONVER          ICPHFT          10D- 16             ***   
       CPHF_MAXCYC          ICPHFC             64              cycles 
       CUBIC                ICUBIC         OFF         [  0]    ***   
       CURVILINEAR          ICURVY         ON          [  1]    ***   
       DBOC                 IDBOC          ON          [  1]    ***   
       DCT                  IDCT           OFF         [  0]    ***   
       DERIV_LEV            IDRLVL         SECOND      [  2]    ***   
       DEVMEM_SIZE          IDVMEM          50000000           MByte  
       DIAG_MRCC            IEOMST          10D-  0             ***   
       DIFF_TYPE            IDIFTY         RELAXED     [  0]    ***   
       DIRECT               IDIRCT         OFF         [  0]    ***   
       DROPMO               IDRPMO      NONE         
       ECP                  IECP           OFF         [  0]    ***   
       EIGENVECTOR          IVEC                1               ***   
       EL_ANHARM            IELANH         OFF         [  0]    ***   
       EOMFOLLOW            IEOMSR         ENERGY      [  0]    ***   
       EOMIP                IEOMIP         OFF         [  0]    ***   
       EOMLEVEL             HBARFM         SAME        [  0]    ***   
       EOM_MRCC             IMRCCE         NEW         [  1]    ***   
       EOM_NONIT            EOMNON         OFF         [  0]    ***   
       EOM_NSING            IEOMSI          10D-  0             ***   
       EOM_NSTATES          IMRCCD         DAVIDSON    [  0]    ***   
       EOM_NTRIP            IEOMTR          10D-  0             ***   
       EOM_ORDER            IEXORD         ENERGY      [  0]    ***   
       EOM_PROPSTA          IEOMST              0               ***   
       ESTATE_CONV          IEXTOL          10D-  5             ***   
       ESTATE_DIAG          IEXDIG         ITERATIVE   [  0]    ***   
       ESTATE_LOCK          IESLOC         ON          [  1]    ***   
       ESTATE_MAXC          IEXMXC             40               ***   
       ESTATE_PROP          IEXPRP         OFF         [  0]    ***   
       EVAL_HESS            IRECAL              0            # of cyc.
       EXCITATION           IEXCIT              0               ***   
       EXCITE               IEXCIT         NONE        [  0]    ***   
       EXTERN_POT           IEXPOT         OFF         [  0]    ***   
       FCGRADNEW            IFCGNW         OFF         [  0]    ***   
       FC_FIELD             IFINFC              0             x 10-6  
       FD_CALTYPE           IFDCAL         GRADONLY    [  0]    ***   
       FD_PROJECT           IFDPRJ         OFF         [  1]    ***   
       FD_STEPSIZE          IDISFD              0            10-4 bohr
       FD_USEGROUP          IFDGRP         FULL        [  0]    ***   
       FILE_RECSIZ          IFLREC              4096           words  
       FINITE_PERT          IFIPER              0             x 10-6  
       FIXGEOM              IFIXGM         OFF         [  0]    ***   
       FOCK                 IFOCK          AO          [  1]    ***   
       FREQ_ALGORI          IVIALG         STANDARD    [  0]    ***   
       FROZEN_CORE          IFROCO         OFF         [  0]    ***   
       GAMMA_ABCD           IGABCD         STORE       [  0]    ***   
       GAMMA_ABCI           IGABCI         STORE       [  0]    ***   
       GENBAS_1             IGNBS1              0               ***   
       GENBAS_2             IGNBS2              0               ***   
       GENBAS_3             IGNBS3              0               ***   
       GENBAS_4             IGNBS4              0               ***   
       GEO_CONV             ICONTL              5              H/bohr 
       GEO_MAXCYC           IOPTCY             50               ***   
       GEO_MAXSTEP          IMXSTP            300            millibohr
       GEO_METHOD           INR            SINGLE_POINT[  5]    ***   
       GIAO                 IGIAO          OFF         [  1]    ***   
       GIMIC                IGIMIC         OFF         [  0]    ***   
       GRID                 IGRID          OFF         [  0]    ***   
       GRID_ALGO            IGALGO         SERIAL      [  0]    ***   
       GUESS                IGUESS         MOREAD      [  0]    ***   
       HBAR                 IHBAR          OFF         [  0]    ***   
       HESS_TYPE            IHESTP         SCF         [  0]    ***   
       HF2_FILE             IHF2Fl         USE         [  1]    ***   
       HFSTABILITY          ISTABL         OFF         [  0]    ***   
       INCORE               INCORE         OFF         [  0]    ***   
       INPUT_MRCC           IMRCC          ON          [  1]    ***   
       INTEGRALS            INTTYP         VMOL        [  1]    ***   
       JODA_PRINT           IJPRNT              0               ***   
       KEYWORD_OUT          IDMPKW         NO          [  0]    ***   
       LINDEP_TOL           ILINDP              8               ***   
       LINEQ_CONV           IZTACN          10D-  7           cycles  
       LINEQ_EXPOR          ILMAXD              5               ***   
       LINEQ_MAXCY          ILMAXC            100               ***   
       LINEQ_TYPE           ILTYPE         DIIS        [  1]    ***   
       LOCK_ORBOCC          ILOCOC         OFF         [  0]    ***   
       MEMORY_SIZE          IMEMSZ         500000000           words  
       MEM_UNIT             IMEMU          INTEGERWORDS[  0]    ***   
       MRCC                 IMRCCC         OFF         [  0]    ***   
       MULTIPLICTY          IMULTP              1               ***   
       NACOUPLING           IVCOUP         OFF         [  0]    ***   
       NEGEVAL              IDIE           ABORT       [  0]    ***   
       NEWNORM              INEWNO         OFF         [  0]    ***   
       NON-HF               INONHF         OFF         [  0]    ***   
       NTOP_TAMP            ITOPT2             15               ***   
       NUC_MODEL            INUCMO         POINT       [  0]    ***   
       OCCUPATION           IOCCU   ESTIMATED BY SCF 
       OPEN-SHELL           IOPEN          SPIN-ORBITAL[  0]    ***   
       OPTVIB               IOPTVB         OFF         [  0]    ***   
       ORBITALS             IORBTP         STANDARD    [  0]    ***   
       PARALLEL             IPARAL         ON          [  1]    ***   
       PARA_INT             IPINTS         ON          [  1]    ***   
       PARA_PRINT           IPPRIN              0               ***   
       PERT_ORB             IPTORB         STANDARD    [  0]    ***   
       POINTS               IGRDFD              0               ***   
       PRINT                IPRNT               0               ***   
       PROPS                IPROPS         OFF         [  0]    ***   
       PROP_INTEGR          IINTYP         INTERNAL    [  0]    ***   
       PSI                  IPSI           OFF         [  0]    ***   
       QC_ALG               IQCALG         FLM         [  0]    ***   
       QC_LINALG            IQCLIN         TRIDIAG     [  2]    ***   
       QC_MAXCYC            IQCMAX          10D-100           cycles  
       QC_MAXSCFCY          IQCMSC          10D- 15           cycles  
       QC_RTRUST            IQCRTR          10D-  0           x 10-3  
       QC_SKIPSCF           IQCSKI         OFF         [  0]    ***   
       QC_START             IQCSTA          10D-  1             ***   
       QRHFGUESS            IQGUES         OFF         [  0]    ***   
       QUARTIC              IQUART         OFF         [  0]    ***   
       RAMAN_INT            IRAMIN         OFF         [  0]    ***   
       RAMAN_ORB            IRAMRE         UNRELAXED   [  0]    ***   
       RDO                  IRDOFM         ON          [  1]    ***   
       REDUCE_REPR          REDREP         Ir          [  0]    ***   
       REFERENCE            IREFNC         RHF         [  0]    ***   
       RELATIVIST           IRELAT         OFF         [  0]    ***   
       RELAX_DENS           IRDENS         ON          [  1]    ***   
       RESET_FLAGS          IRESET         OFF         [  0]    ***   
       RESTART_CC           ICCRES         OFF         [  0]    ***   
       ROT_EVEC             ROTVEC              0               ***   
       SAVE_INTS            ISVINT         OFF         [  0]    ***   
       SCALE_ON             ISTCRT              0               ***   
       SCF_CONV             ISCFCV          10D- 10             ***   
       SCF_DAMPING          IDAMP               0             x 10-3  
       SCF_EXPORDE          IRPPOR              6               ***   
       SCF_EXPSTAR          IRPPLS              8               ***   
       SCF_EXTRAPO          IRPP           ON          [  1]    ***   
       SCF_MAXCYC           ISCFCY            150              cycles 
       SCF_NOSTOP           ISCFST         OFF         [  0]    ***   
       SCF_PRINT            ISCFPR              0               ***   
       SCF_PROG             ISCFPR         SCF         [  0]    ***   
       SD_FIELD             IFINSD              0             x 10-6  
       SOPERT               IPERSO         OFF         [  0]    ***   
       SPHERICAL            IDFGHI         ON          [  1]    ***   
       SPINORBIT            ISOCAL         OFF         [  0]    ***   
       SPINROTATIO          ISRCON         OFF         [  0]    ***   
       SPIN_FLIP            ISPFLP         OFF         [  0]    ***   
       SPIN_ORBIT           ISPORB         OFF         [  0]    ***   
       SPIN_SCAL            ISCSMP         OFF         [  0]    ***   
       STEEPSCALE           ISTPSC              1000          x 10-3  
       SUBGROUP             ISUBGP         DEFAULT     [  0]    ***   
       SUBGRPAXIS           ISBXYZ         X           [  0]    ***   
       SYMMETRY             ISYM           ON          [  0]    ***   
       SYM_CHECK            ISYMCK         OVERRIDE    [  1]    ***   
       T3_EXTRAPOL          IT3EXT         OFF         [  0]    ***   
       T4_EXTRAPOL          IT4EXP         OFF         [  0]    ***   
       TAMP_SUM             IEVERY              5               ***   
       TESTSUITE            ITESTS         OFF         [  0]    ***   
       THERMOCH             ITHERM         OFF         [  0]    ***   
       TOL_CHOLESK          ITOLCH          10D-  4             ***   
       TRANGRAD             IRESRM         OFF         [  0]    ***   
       TRANS_INV            ITRAIN         IGNORE      [  1]    ***   
       TREAT_PERT           ITREAT         SIMULTANEOUS[  0]    ***   
       TRIP_ALGORI          ITRALG         NORMAL      [  0]    ***   
       UIJ_THRESHO          IUIJTH              1               ***   
       UNITS                IUNITS         ANGSTROM    [  0]    ***   
       UNOS                 IUNOS          OFF         [  0]    ***   
       UPDATE_HESS          IHUPDT         ON          [  1]    ***   
       VIBPHASE             ISETPH         STANDARD    [  0]    ***   
       VIBRATION            IVIB           ANALYTIC    [  1]    ***   
       VIB_ALGORIT          IGEALG         STANDARD    [  0]    ***   
       VNATORB              IVNORB         OFF         [  0]    ***   
       VTRAN                IVTRAN         FULL/PARTIAL[  0]    ***   
       XFIELD               IXEFLD              0             x 10-6  
       XFORM_TOL            IXFTOL          10D- 11             ***   
       YFIELD               IYEFLD              0             x 10-6  
       ZFIELD               IZEFLD              0             x 10-6  
       ZSCALE_EXP           IZEXPS         OFF         [  0]    ***   
    -------------------------------------------------------------------
   3 entries found in Z-matrix 
   Job Title : Hypochlorous acid higher-order corrections                                      
   There are  3 unique internal coordinates.
   Of these,  0 will be optimized.
   User supplied Z-matrix: 
--------------------------------------------------------------------------------
       SYMBOL    BOND      LENGTH    ANGLE     ANGLE     DIHED     ANGLE
                  TO      (ANGST)    WRT      (DEG)      WRT      (DEG)
--------------------------------------------------------------------------------
        O    
        H          1         ROH  
        CL         1         ROCL       2        A    
                  *Initial values for internal coordinates* 
                      Name             Value
                        ROH             0.9600000000
                        ROCL            1.6830000000
                        A             106.0000000000
--------------------------------------------------------------------------------
   Rotational constants (in cm-1): 
          0.4969956694             0.5088425135            21.3468264840
   Rotational constants (in MHz): 
      14899.5574206347         15254.7169218922        639961.8478698266
********************************************************************************
   The full molecular point group is C s .
   The largest Abelian subgroup of the full molecular point group is C s .
   The computational point group is C s .
********************************************************************************
--------------------------------------------------------------------------------
   Analysis of internal coordinates specified by Z-matrix 
--------------------------------------------------------------------------------
   *The nuclear repulsion energy is   51.345742016145465 a.u.
   *There are   3 degrees of freedom within the tot. symm. molecular subspace.
   *Z-matrix requests optimization of   0 coordinates.
   *The optimization is constrained.
   *The following   3 parameters can have non-zero 
    derivatives within the totally symmetric subspace:
             A    [ 3]  ROH  [ 1]  ROCL [ 2]
   *The following   0 parameters are to be optimized:

   *The following coordinates must be varied in an  unconstrained optimization.
             A    [ 3]  ROH  [ 1]  ROCL [ 2]
--------------------------------------------------------------------------------


 ----------------------------------------------------------------
         Coordinates used in calculation (QCOMP) 
 ----------------------------------------------------------------
 Z-matrix   Atomic            Coordinates (in bohr)
  Symbol    Number           X              Y              Z
 ----------------------------------------------------------------
     O         8        -2.12716294     0.11912683     0.00000000
     H         1        -2.69666497    -1.60330231    -0.00000000
     CL       17         1.05069378    -0.00828095    -0.00000000
 ----------------------------------------------------------------
 
   Interatomic distance matrix (Angstroms) 
 
                 O             H             CL   
                [ 1]        [ 2]        [ 3]
  O    [ 1]     0.00000
  H    [ 2]     0.96000     0.00000
  CL   [ 3]     1.68300     2.15517     0.00000
 rotcon2
   Rotational constants (in cm-1): 
         21.3468264840             0.5088425135             0.4969956694
   Rotational constants (in MHz): 
     639961.8478698261         15254.7169218922         14899.5574206347
  ECPDATA file not present.   Using default ECPDATA. 
  @GTFLGS-I, Hessian will be transformed to curvilinear coordinates.
  There are   78 basis functions.
 @CHECKOUT-I, Total execution time (CPU/WALL):        0.12/       0.15 seconds.
--executable xjoda finished with status     0 in        0.17 seconds (walltime).
 --invoking executable--
/home/asmola/.local/bin/xvmol
 SERIAL VERSION OF MOLECULE STARTED
********************************************************************************
                    INPUT FROM MOL FILE
********************************************************************************
INTGRL        1    0    1    0    0    0    0    0    0                         
         *** CFOUR Program System (Release V0.1) ***                            
Hypochlorous acid higher-order corrections                                      
    3    1 Z          0.10E-08              0    0                              
   9999.00      3.00                                                            
          8.00000000    1    4    1    1    1    1                              
O #1  -2.127162939296468   0.119126832533820   0.000000000000000                
   10    4                                                                      
   15330.0000000000       5.080000000000000E-004 -1.150000000000000E-004        
  0.000000000000000E+000  0.000000000000000E+000                                
   2299.00000000000       3.929000000000000E-003 -8.950000000000000E-004        
  0.000000000000000E+000  0.000000000000000E+000                                
   522.400000000000       2.024300000000000E-002 -4.636000000000000E-003        
  0.000000000000000E+000  0.000000000000000E+000                                
   147.300000000000       7.918100000000000E-002 -1.872400000000000E-002        
  0.000000000000000E+000  0.000000000000000E+000                                
   47.5500000000000       0.230687000000000      -5.846300000000000E-002        
  0.000000000000000E+000  0.000000000000000E+000                                
   16.7600000000000       0.433118000000000      -0.136463000000000             
  0.000000000000000E+000  0.000000000000000E+000                                
   6.20700000000000       0.350260000000000      -0.175740000000000             
  0.000000000000000E+000  0.000000000000000E+000                                
   1.75200000000000       4.272800000000000E-002  0.160934000000000             
   1.00000000000000       0.000000000000000E+000                                
  0.688200000000000      -8.154000000000000E-003  0.603418000000000             
  0.000000000000000E+000  0.000000000000000E+000                                
  0.238400000000000       2.381000000000000E-003  0.378765000000000             
  0.000000000000000E+000   1.00000000000000                                     
    5    3                                                                      
   34.4600000000000       1.592800000000000E-002  0.000000000000000E+000        
  0.000000000000000E+000                                                        
   7.74900000000000       9.974000000000000E-002  0.000000000000000E+000        
  0.000000000000000E+000                                                        
   2.28000000000000       0.310492000000000       0.000000000000000E+000        
  0.000000000000000E+000                                                        
  0.715600000000000       0.491026000000000        1.00000000000000             
  0.000000000000000E+000                                                        
  0.214000000000000       0.336337000000000       0.000000000000000E+000        
   1.00000000000000                                                             
    2    2                                                                      
   2.31400000000000        1.00000000000000       0.000000000000000E+000        
  0.645000000000000       0.000000000000000E+000   1.00000000000000             
    1    1                                                                      
   1.42800000000000        1.00000000000000                                     
          1.00000000    1    3    1    1    1                                   
H #2  -2.696664968117179  -1.603302313285325  -0.000000000000002                
    5    3                                                                      
   33.8700000000000       6.068000000000000E-003  0.000000000000000E+000        
  0.000000000000000E+000                                                        
   5.09500000000000       4.530800000000000E-002  0.000000000000000E+000        
  0.000000000000000E+000                                                        
   1.15900000000000       0.202822000000000       0.000000000000000E+000        
  0.000000000000000E+000                                                        
  0.325800000000000       0.503903000000000        1.00000000000000             
  0.000000000000000E+000                                                        
  0.102700000000000       0.383421000000000       0.000000000000000E+000        
   1.00000000000000                                                             
    2    2                                                                      
   1.40700000000000        1.00000000000000       0.000000000000000E+000        
  0.388000000000000       0.000000000000000E+000   1.00000000000000             
    1    1                                                                      
   1.05700000000000        1.00000000000000                                     
         17.00000000    1    4    1    1    1    1                              
CL#3   1.050693781038984  -0.008280949587588  -0.000000000000000                
   15    5                                                                      
   456100.000000000       4.930000000000000E-005 -1.383000000000000E-005        
  4.190000000000000E-006  0.000000000000000E+000  0.000000000000000E+000        
   68330.0000000000       3.830300000000000E-004 -1.072800000000000E-004        
  3.244000000000000E-005  0.000000000000000E+000  0.000000000000000E+000        
   15550.0000000000       2.008540000000000E-003 -5.650800000000000E-004        
  1.711100000000000E-004  0.000000000000000E+000  0.000000000000000E+000        
   4405.00000000000       8.385580000000000E-003 -2.361350000000000E-003        
  7.141800000000000E-004  0.000000000000000E+000  0.000000000000000E+000        
   1439.00000000000       2.947030000000000E-002 -8.458860000000000E-003        
  2.567050000000000E-003  0.000000000000000E+000  0.000000000000000E+000        
   520.400000000000       8.783249999999999E-002 -2.596380000000000E-002        
  7.885520000000000E-003  0.000000000000000E+000  0.000000000000000E+000        
   203.100000000000       0.211473000000000      -6.863619999999999E-002        
  2.108670000000000E-002  0.000000000000000E+000  0.000000000000000E+000        
   83.9600000000000       0.365364000000000      -0.141874000000000             
  4.422640000000000E-002  0.000000000000000E+000  0.000000000000000E+000        
   36.2000000000000       0.340884000000000      -0.199319000000000             
  6.516700000000000E-002  0.000000000000000E+000  0.000000000000000E+000        
   15.8300000000000       0.102133000000000      -1.956620000000000E-002        
  6.030120000000000E-003  0.000000000000000E+000  0.000000000000000E+000        
   6.33400000000000       3.116750000000000E-003  0.499741000000000             
 -0.206495000000000       0.000000000000000E+000  0.000000000000000E+000        
   2.69400000000000       1.057510000000000E-003  0.563736000000000             
 -0.405871000000000       0.000000000000000E+000  0.000000000000000E+000        
  0.976800000000000      -3.780000000000000E-004  7.903250000000001E-002        
  7.595580000000000E-002   1.00000000000000       0.000000000000000E+000        
  0.431300000000000       1.561400000000000E-004 -8.350910000000000E-003        
  0.725661000000000       0.000000000000000E+000  0.000000000000000E+000        
  0.162500000000000      -5.141000000000000E-005  2.324560000000000E-003        
  0.394423000000000       0.000000000000000E+000   1.00000000000000             
    9    4                                                                      
   663.300000000000       2.404480000000000E-003 -6.521500000000000E-004        
  0.000000000000000E+000  0.000000000000000E+000                                
   156.800000000000       1.921480000000000E-002 -5.194450000000000E-003        
  0.000000000000000E+000  0.000000000000000E+000                                
   49.9800000000000       8.850970000000000E-002 -2.469380000000000E-002        
  0.000000000000000E+000  0.000000000000000E+000                                
   18.4200000000000       0.256020000000000      -7.281670000000000E-002        
  0.000000000000000E+000  0.000000000000000E+000                                
   7.24000000000000       0.436927000000000      -0.134030000000000             
  0.000000000000000E+000  0.000000000000000E+000                                
   2.92200000000000       0.350334000000000      -9.477420000000000E-002        
  0.000000000000000E+000  0.000000000000000E+000                                
   1.02200000000000       5.854950000000000E-002  0.262289000000000             
   1.00000000000000       0.000000000000000E+000                                
  0.381800000000000      -4.584230000000000E-003  0.564667000000000             
  0.000000000000000E+000  0.000000000000000E+000                                
  0.130100000000000       2.269700000000000E-003  0.341250000000000             
  0.000000000000000E+000   1.00000000000000                                     
    2    2                                                                      
   1.04600000000000        1.00000000000000       0.000000000000000E+000        
  0.344000000000000       0.000000000000000E+000   1.00000000000000             
    1    1                                                                      
  0.706000000000000        1.00000000000000                                     
FINISH                                                                          
 
********************************************************************************
 ONE- AND TWO-ELECTRON INTEGRALS OVER SYMMETRY-ADAPTED AOS ARE CALCULATED.

  SPHERICAL HARMONICS ARE USED.
  
  INTEGRALS LESS THAN  0.10E-13 ARE NEGLECTED.

  NUCLEAR REPULSION ENERGY :   51.3457420161 A.U.
  @MOLECU-I, ONE ELECTRON INTEGRALS (CPU/WALL):        0.02/       0.02 SECONDS.
  @TWOEL-I,    1025841 INTEGRALS OF SYMMETRY TYPE  I I I I
  @TWOEL-I,     836759 INTEGRALS OF SYMMETRY TYPE  I J I J
  @TWOEL-I,     441518 INTEGRALS OF SYMMETRY TYPE  I I J J
  @TWOEL-I, TOTAL NUMBER OF 2-E INTEGRALS    2304118.
  @MOLECU-I, TWO ELECTRON INTEGRALS (CPU/WALL):        9.89/       1.35 SECONDS.
 @CHECKOUT-I, Total execution time (CPU/WALL):        9.91/       1.38 seconds.

Running with 8 threads/proc

--executable xvmol finished with status     0 in        1.42 seconds (walltime).
 --invoking executable--
/home/asmola/.local/bin/xvmol2ja
 @GETMEM-I,  Allocated    3814 MB of main memory.
 @CHECKOUT-I, Total execution time (CPU/WALL):        0.04/       0.01 seconds.
--executable xvmol2ja finished with status     0 in        0.04 seconds (walltime).
 --invoking executable--
/home/asmola/.local/bin/xvscf
  There are   78 functions in the AO basis.

  There are 2 irreducible representations.

       Irrep        # of functions
         1                 53
         2                 25


  Parameters for SCF calculation: 
        SCF reference function:  RHF  
  Maximum number of iterations:  150
     Full symmetry point group: C s 
     Computational point group: C s 
        Initial density matrix: MOREAD                 
     SCF convergence tolerance: 10**(-10)
  DIIS convergence acceleration:  ON
          Latest start for DIIS:   8
                     DIIS order:   6

  Memory information:     320132 words required.
  Fock matrices are constructed from AO integral file.
 @GETMEM-I,  Allocated       2 MB of main memory.
  Initialization and symmetry analysis required      0.001 seconds.

  @INITGES-I, Occupancies from core Hamiltonian:

          Alpha population by irrep:  11    2
           Beta population by irrep:  11    2


 total no. of electrons in initial guess :  0.000000000000000E+000
  --------------------------------------------------------------------
  Iteration         Total Energy            Largest Density Difference
  --------------------------------------------------------------------
       0            51.345742016145451              0.0000000000D+00
   current occupation vector 
    11  2
    11  2
       1          -496.639612556571478              0.1336833863D+02
   current occupation vector 
    11  2
    11  2
       2          -511.931167017023881              0.1333690675D+02
   current occupation vector 
    10  3
    10  3
       3          -504.216188946518059              0.5759243712D+01
   current occupation vector 
    10  3
    10  3
       4          -507.080633414558747              0.7817978536D+01
   current occupation vector 
    10  3
    10  3
       5          -504.354375925360500              0.7817990223D+01
   current occupation vector 
    10  3
    10  3
       6          -506.893218348743062              0.7888684192D+01
   current occupation vector 
    10  3
    10  3
       7          -504.361277768545619              0.7888684420D+01
   current occupation vector 
    10  3
    10  3
       8          -506.884903514118719              0.7890920714D+01
   current occupation vector 
    10  3
    10  3
       9          -528.399949373265827              0.5701315910D+01
   current occupation vector 
    11  2
    11  2
      10          -534.831579766325262              0.2099918636D+01
   current occupation vector 
    10  3
    10  3
      11          -534.914238042460738              0.2985267131D+00
   current occupation vector 
    10  3
    10  3
      12          -534.919101116166757              0.5590057295D-01
   current occupation vector 
    10  3
    10  3
      13          -534.920078911070505              0.2365786361D-01
   current occupation vector 
    10  3
    10  3
      14          -534.920159443468947              0.1077194485D-01
   current occupation vector 
    10  3
    10  3
      15          -534.920162034279542              0.1516248343D-02
   current occupation vector 
    10  3
    10  3
      16          -534.920162410068883              0.6012553566D-03
   current occupation vector 
    10  3
    10  3
      17          -534.920162433589553              0.1402411426D-03
   current occupation vector 
    10  3
    10  3
      18          -534.920162436656369              0.5989290890D-04
   current occupation vector 
    10  3
    10  3
      19          -534.920162437066210              0.2462257232D-04
   current occupation vector 
    10  3
    10  3
      20          -534.920162437118734              0.7778954599D-05
   current occupation vector 
    10  3
    10  3
      21          -534.920162437127260              0.4308031714D-05
   current occupation vector 
    10  3
    10  3
      22          -534.920162437128852              0.2055016821D-05
   current occupation vector 
    10  3
    10  3
      23          -534.920162437133285              0.5133325790D-06
   current occupation vector 
    10  3
    10  3
      24          -534.920162437128852              0.3312475748D-06
   current occupation vector 
    10  3
    10  3
      25          -534.920162437132262              0.4114036367D-07
   current occupation vector 
    10  3
    10  3
      26          -534.920162437129079              0.4692850886D-08
   current occupation vector 
    10  3
    10  3
      27          -534.920162437131239              0.2412129649D-08
   current occupation vector 
    10  3
    10  3
      28          -534.920162437129420              0.2940314658D-09
   current occupation vector 
    10  3
    10  3
      29          -534.920162437131694              0.3134742466D-09
   current occupation vector 
    10  3
    10  3

  SCF has converged.

 Density matrix saved to file den.dat
 total electron number:   26.0000000000000     
     E(SCF)=      -534.920162437131353              0.6223854765D-10


  Final occupancies:

     Alpha population by irrep:  10    3
      Beta population by irrep:  10    3


  Eigenvector printing suppressed.

 @PUTMOS-I, Writing converged MOs to NEWMOS. 
 @PUTMOS-I, Symmetry   1 Full Blocks 13 Partial Blocksize   1
 @PUTMOS-I, Symmetry   2 Full Blocks  6 Partial Blocksize   1
 @PUTFOCK-I, Writing converged Fock matrix to NEWFOCK. 
 @PUTFOCK-I, Symmetry   1 Full Blocks 13 Partial Blocksize   1
 @PUTFOCK-I, Symmetry   2 Full Blocks  6 Partial Blocksize   1


 
  ORBITAL EIGENVALUES (ALPHA)  (1H = 27.2113834 eV)

       MO #        E(hartree)               E(eV)           FULLSYM    COMPSYM
       ----   --------------------   --------------------   -------   ---------
    1     1        -104.8884824712       -2854.1607107679     A'        A'  (1)
    2     2         -20.6358784683        -561.5308007970     A'        A'  (1)
    3     3         -10.6085171410        -288.6724272297     A'        A'  (1)
    4     4          -8.0757340487        -219.7518954348     A'        A'  (1)
    5     5          -8.0726026717        -219.6666863358     A'        A'  (1)
    6    54          -8.0724480814        -219.6624797193     A''       A'' (2)
    7     6          -1.4114178873         -38.4066332703     A'        A'  (1)
    8     7          -1.0606179116         -28.8608806339     A'        A'  (1)
    9     8          -0.7203615319         -19.6020338321     A'        A'  (1)
   10    55          -0.6117816370         -16.6474246821     A''       A'' (2)
   11     9          -0.6018417613         -16.3769469116     A'        A'  (1)
   12    10          -0.4653622346         -12.6631501848     A'        A'  (1)
   13    56          -0.4408775443         -11.9968878896     A''       A'' (2)
  +++++++++++++++++++++++++++++++++++++++++++++++++++++++++++++++++++++++++++++
   14    11           0.0966760032           2.6306877878     A'        A'  (1)
   15    12           0.1715031504           4.6668379797     A'        A'  (1)
   16    13           0.4758638749          12.9489143454     A'        A'  (1)
   17    14           0.4847662608          13.1911605833     A'        A'  (1)
   18    57           0.4870894102          13.2543766906     A''       A'' (2)
   19    15           0.5455549511          14.8453049402     A'        A'  (1)
   20    16           0.5734684657          15.6048702884     A'        A'  (1)
   21    17           0.6284870453          17.1020019522     A'        A'  (1)
   22    58           0.6321949327          17.2028986968     A''       A'' (2)
   23    18           0.6462272145          17.5847364965     A'        A'  (1)
   24    59           0.6621473565          18.0179455837     A''       A'' (2)
   25    19           0.7564696906          20.5845867811     A'        A'  (1)
   26    60           0.8143871790          22.1606017641     A''       A'' (2)
   27    20           0.8561308637          23.2965051737     A'        A'  (1)
   28    61           0.9217865955          25.0830884634     A''       A'' (2)
   29    21           1.0148157931          27.6145416256     A'        A'  (1)
   30    22           1.0971689147          29.8554839913     A'        A'  (1)
   31    23           1.3180736439          35.8666072723     A'        A'  (1)
   32    24           1.5335914088          41.7311438051     A'        A'  (1)
   33    62           1.7734363179          48.2576555811     A''       A'' (2)
   34    25           1.9100452587          51.9749738452     A'        A'  (1)
   35    63           1.9768698611          53.7933637234     A''       A'' (2)
   36    26           2.1198225460          57.6833040392     A'        A'  (1)
   37    27           2.1484281957          58.4617033397     A'        A'  (1)
   38    64           2.2246612777          60.5361109614     A''       A'' (2)
   39    65           2.2334117840          60.7742243449     A''       A'' (2)
   40    28           2.2376361304          60.8891746551     A'        A'  (1)
   41    29           2.2784572215          61.9999730157     A'        A'  (1)
   42    30           2.3126464581          62.9303094400     A'        A'  (1)
   43    66           2.3926267025          65.1066825346     A''       A'' (2)
   44    31           2.3964235941          65.2100012087     A'        A'  (1)
   45    67           2.4239222930          65.9582788459     A''       A'' (2)
   46    32           2.4508308495          66.6904978948     A'        A'  (1)
   47    68           2.5404958927          69.1304077630     A''       A'' (2)
   48    33           2.5468059511          69.3021131813     A'        A'  (1)
   49    34           2.5800460311          70.2066217426     A'        A'  (1)
   50    69           2.7870585730          75.8397193873     A''       A'' (2)
   51    35           2.7952254196          76.0619505813     A'        A'  (1)
   52    36           2.9303378257          79.7385460664     A'        A'  (1)
   53    37           3.1750380589          86.3971779299     A'        A'  (1)
   54    70           3.5230658803          95.8674964136     A''       A'' (2)
   55    38           3.5461908703          96.4967593809     A'        A'  (1)
   56    71           3.7733291752         102.6775068820     A''       A'' (2)
   57    39           4.0072187393         109.0419654835     A'        A'  (1)
   58    72           4.0247542327         109.5191305181     A''       A'' (2)
   59    40           4.0820602307         111.0785060001     A'        A'  (1)
   60    41           4.3146884927         117.4086428275     A'        A'  (1)
   61    73           4.4651099332         121.5018183146     A''       A'' (2)
   62    42           4.5662413570         124.2537442625     A'        A'  (1)
   63    43           4.8346056612         131.5563082342     A'        A'  (1)
   64    44           5.0040468427         136.1670371879     A'        A'  (1)
   65    45           5.3432978408         145.3985261654     A'        A'  (1)
   66    74           5.6592222995         153.9952677369     A''       A'' (2)
   67    46           5.7861652011         157.4495597041     A'        A'  (1)
   68    75           5.8452924434         159.0584937632     A''       A'' (2)
   69    47           6.0621271298         164.9588655472     A'        A'  (1)
   70    76           6.8609716047         186.6965288328     A''       A'' (2)
   71    48           6.9358657615         188.7345024463     A'        A'  (1)
   72    77           6.9441052683         188.9587108264     A''       A'' (2)
   73    49           6.9939310640         190.3145396546     A'        A'  (1)
   74    78           7.0702047658         192.3900525986     A''       A'' (2)
   75    50           7.1063225794         193.3728682730     A'        A'  (1)
   76    51           7.4019909142         201.4184126884     A'        A'  (1)
   77    52           7.7097930949         209.7941358412     A'        A'  (1)
   78    53          11.3602075980         309.1269644523     A'        A'  (1)


  VSCF finished.

 @CHECKOUT-I, Total execution time (CPU/WALL):        5.28/       0.67 seconds.
--executable xvscf finished with status     0 in        0.69 seconds (walltime).
 --invoking executable--
/home/asmola/.local/bin/xvtran
 @GETMEM-I,  Allocated    3814 MB of main memory.
  Full RHF integral transformation
  Transformation of IIII integrals :
  1 pass through the AO integral file was required.
     1025841 AO integrals were read.
     1077571 MO integrals were written to HF2.
  Transformation of IIJJ integrals :
  1 pass through the AO integral file was required.
      441518 AO integrals were read.
      465075 MO integrals were written to HF2.
  Transformation of IJIJ integrals :
  1 pass through the AO integral file was required.
      836759 AO integrals were read.
      878475 MO integrals were written to HF2.
  Summary of active molecular orbitals: 
------------------------------------------------------------------------
 
  Index      Eigenvalue    Symmetry    Index      Eigenvalue    Symmetry
------------------------------------------------------------------------
     1      -104.8884825        1        40         3.1750381        1
     2       -20.6358785        1        41         3.5461909        1
     3       -10.6085171        1        42         4.0072187        1
     4        -8.0757340        1        43         4.0820602        1
     5        -8.0726027        1        44         4.3146885        1
     6        -1.4114179        1        45         4.5662414        1
     7        -1.0606179        1        46         4.8346057        1
     8        -0.7203615        1        47         5.0040468        1
     9        -0.6018418        1        48         5.3432978        1
    10        -0.4653622        1        49         5.7861652        1
    11        -8.0724481        2        50         6.0621271        1
    12        -0.6117816        2        51         6.9358658        1
    13        -0.4408775        2        52         6.9939311        1
    14         0.0966760        1        53         7.1063226        1
    15         0.1715032        1        54         7.4019909        1
    16         0.4758639        1        55         7.7097931        1
    17         0.4847663        1        56        11.3602076        1
    18         0.5455550        1        57         0.4870894        2
    19         0.5734685        1        58         0.6321949        2
    20         0.6284870        1        59         0.6621474        2
    21         0.6462272        1        60         0.8143872        2
    22         0.7564697        1        61         0.9217866        2
    23         0.8561309        1        62         1.7734363        2
    24         1.0148158        1        63         1.9768699        2
    25         1.0971689        1        64         2.2246613        2
    26         1.3180736        1        65         2.2334118        2
    27         1.5335914        1        66         2.3926267        2
    28         1.9100453        1        67         2.4239223        2
    29         2.1198225        1        68         2.5404959        2
    30         2.1484282        1        69         2.7870586        2
    31         2.2376361        1        70         3.5230659        2
    32         2.2784572        1        71         3.7733292        2
    33         2.3126465        1        72         4.0247542        2
    34         2.3964236        1        73         4.4651099        2
    35         2.4508308        1        74         5.6592223        2
    36         2.5468060        1        75         5.8452924        2
    37         2.5800460        1        76         6.8609716        2
    38         2.7952254        1        77         6.9441053        2
    39         2.9303378        1        78         7.0702048        2
------------------------------------------------------------------------
  -104.888482471197       -20.6358784683099       -10.6085171410183     
  -8.07573404867117       -8.07260267171155       -1.41141788734868     
  -1.06061791161576      -0.720361531936985      -0.601841761254757     
 -0.465362234572066       -8.07244808138995      -0.611781637021578     
 -0.440877544270588       9.667600316958196E-002  0.171503150394705     
  0.475863874874899       0.484766260846286       0.545554951102737     
  0.573468465716428       0.628487045322626       0.646227214471414     
  0.756469690589555       0.856130863735364        1.01481579306827     
   1.09716891465766        1.31807364385355        1.53359140884877     
   1.91004525867583        2.11982254600056        2.14842819566898     
   2.23763613044103        2.27845722153625        2.31264645809856     
   2.39642359413258        2.45083084951733        2.54680595112016     
   2.58004603112698        2.79522541956789        2.93033782569250     
   3.17503805888476        3.54619087028455        4.00721873932677     
   4.08206023072371        4.31468849273974        4.56624135700754     
   4.83460566117921        5.00404684268751        5.34329784076276     
   5.78616520114442        6.06212712975066        6.93586576147099     
   6.99393106396205        7.10632257943364        7.40199091415603     
   7.70979309494578        11.3602075979833       0.487089410184769     
  0.632194932685116       0.662147356451046       0.814387179010672     
  0.921786595510504        1.77343631787098        1.97686986114209     
   2.22466127765385        2.23341178401557        2.39262670249095     
   2.42392229297320        2.54049589272434        2.78705857296745     
   3.52306588034705        3.77332917524555        4.02475423274722     
   4.46510993316927        5.65922229947803        5.84529244342766     
   6.86097160473056        6.94410526832786        7.07020476579630     
 @CHECKOUT-I, Total execution time (CPU/WALL):        3.75/       0.78 seconds.
--executable xvtran finished with status     0 in        0.80 seconds (walltime).
 --invoking executable--
/home/asmola/.local/bin/xintprc
 @GETMEM-I,  Allocated    3814 MB of main memory.
  Processing integrals for CCSD calculation.
  @GMOIAA-I, Processing MO integrals for spin case AA.
  @GMOIAA-I, Generation of integral list completed.
                      TYPE                NUMBER
                      ----               --------
                      PPPP               1167331
                      PPPH                924858
                      PPHH                184331
                      PHPH                101519
                      PHHH                 40726
                      HHHH                  2356

                     TOTAL               2421121

  @FORMT2-I, Second-order MP correlation energies:
            ------------------------------------------------
            E(SCF)                  =   -534.920162437131 a.u.
            E2(AA)                  =     -0.060839876388 a.u.
            E2(AB)                  =     -0.361707223624 a.u.
            E2(TOT)                 =     -0.483386976400 a.u.
            Total MP2 energy        =   -535.403549413531 a.u.
            ------------------------------------------------
   Largest T2 amplitudes for spin case AB:
       _       _                 _       _                 _       _
   i   j   a   b             i   j   a   b             i   j   a   b
-----------------------------------------------------------------------------
[  9   9  14  14]-0.04496 [ 13  13  59  59]-0.03049 [ 10  10  58  58]-0.02904
[  9   9  15  14] 0.02697 [  9   9  14  15] 0.02697 [ 13  13  58  58]-0.02504
[ 13   9  59  14]-0.02315 [  9  13  14  59]-0.02315 [ 10  10  20  20]-0.02143
[ 10  10  17  17]-0.02117 [  9   9  15  15]-0.02052 [ 13  13  57  57]-0.02032
[  8   8  15  15]-0.01948 [ 12  12  59  59]-0.01947 [ 12  12  60  60]-0.01939
-----------------------------------------------------------------------------
   Norm of T2AB vector (   367817 symmetry allowed elements):  0.3103382287.
-----------------------------------------------------------------------------
 @CHECKOUT-I, Total execution time (CPU/WALL):        1.19/       0.55 seconds.
--executable xintprc finished with status     0 in        0.57 seconds (walltime).
  calling xvcc 
 --invoking executable--
/home/asmola/.local/bin/xvcc
 @GETMEM-I,  Allocated    3814 MB of main memory.
   CCSD energy will be calculated.
   The total correlation energy is -0.483386976400 a.u.
   The total correlation energy is -0.487476320388 a.u.
  Convergence information after     1 iterations: 
  Largest element of residual vector : -0.12246506E-01.
  Largest element of DIIS residual   : -0.12246506E-01.
   The total correlation energy is -0.498878047037 a.u.
  Convergence information after     2 iterations: 
  Largest element of residual vector : -0.58199343E-02.
  Largest element of DIIS residual   : -0.57200038E-02.
   The total correlation energy is -0.499273709529 a.u.
  Convergence information after     3 iterations: 
  Largest element of residual vector : -0.15716237E-02.
  Largest element of DIIS residual   : -0.11078631E-02.
   The total correlation energy is -0.500424856493 a.u.
  Convergence information after     4 iterations: 
  Largest element of residual vector : -0.53987659E-03.
  Largest element of DIIS residual   : -0.31639896E-03.
   The total correlation energy is -0.500499997063 a.u.
  Convergence information after     5 iterations: 
  Largest element of residual vector : -0.31768256E-03.
  Largest element of DIIS residual   : -0.24683200E-03.
   The total correlation energy is -0.500502327878 a.u.
  Convergence information after     6 iterations: 
  Largest element of residual vector : -0.15329624E-03.
  Largest element of DIIS residual   : -0.11002982E-03.
   The total correlation energy is -0.500502773210 a.u.
  Convergence information after     7 iterations: 
  Largest element of residual vector : -0.99707320E-04.
  Largest element of DIIS residual   : -0.56206951E-04.
   The total correlation energy is -0.500501809035 a.u.
  Convergence information after     8 iterations: 
  Largest element of residual vector : -0.40080241E-04.
  Largest element of DIIS residual   : -0.23871447E-04.
   The total correlation energy is -0.500502662565 a.u.
  Convergence information after     9 iterations: 
  Largest element of residual vector : -0.19950482E-04.
  Largest element of DIIS residual   : -0.11441186E-04.
   The total correlation energy is -0.500502906931 a.u.
  Convergence information after    10 iterations: 
  Largest element of residual vector : -0.98126585E-05.
  Largest element of DIIS residual   : -0.36566177E-05.
   The total correlation energy is -0.500503278040 a.u.
  Convergence information after    11 iterations: 
  Largest element of residual vector :  0.21976013E-05.
  Largest element of DIIS residual   :  0.18832838E-05.
   The total correlation energy is -0.500503266518 a.u.
  Convergence information after    12 iterations: 
  Largest element of residual vector : -0.15720740E-05.
  Largest element of DIIS residual   : -0.72033886E-06.
   The total correlation energy is -0.500503277344 a.u.
  Convergence information after    13 iterations: 
  Largest element of residual vector : -0.38463374E-06.
  Largest element of DIIS residual   : -0.31089876E-06.
   The total correlation energy is -0.500503273983 a.u.
  Convergence information after    14 iterations: 
  Largest element of residual vector : -0.29752050E-06.
  Largest element of DIIS residual   : -0.12626194E-06.
   The total correlation energy is -0.500503269810 a.u.
  Convergence information after    15 iterations: 
  Largest element of residual vector : -0.94202507E-07.
  Largest element of DIIS residual   : -0.40908557E-07.
   The total correlation energy is -0.500503274239 a.u.
  Convergence information after    16 iterations: 
  Largest element of residual vector : -0.39687395E-07.
  Largest element of DIIS residual   : -0.14531632E-07.
   The total correlation energy is -0.500503274521 a.u.
  Convergence information after    17 iterations: 
  Largest element of residual vector : -0.15182902E-07.
  Largest element of DIIS residual   : -0.43903893E-08.
   The total correlation energy is -0.500503275645 a.u.
  Convergence information after    18 iterations: 
  Largest element of residual vector :  0.30896464E-08.
  Largest element of DIIS residual   :  0.32583610E-08.
  Amplitude equations converged in    18iterations.
   The total correlation energy is -0.500503275511 a.u.
   The CC iterations have converged.

   Largest T1 amplitudes for spin case AA:
   i       a                 i       a                 i       a    
-----------------------------------------------------------------------------
[ 12      59    ]-0.01446 [  9      24    ]-0.01316 [  9      14    ]-0.00934
[  9      25    ]-0.00818 [  8      14    ]-0.00679 [  8      20    ]-0.00670
[ 10      14    ]-0.00639 [  9      40    ] 0.00591 [  8      24    ] 0.00570
[  8      23    ]-0.00537 [  7      19    ] 0.00529 [  9      21    ] 0.00523
[ 12      60    ]-0.00522 [  9      23    ] 0.00518 [  9      30    ]-0.00444
-----------------------------------------------------------------------------
   Norm of T1AA vector (      496 symmetry allowed elements):  0.0362445058.
-----------------------------------------------------------------------------
   Largest T2 amplitudes for spin case AB:
       _       _                 _       _                 _       _
   i   j   a   b             i   j   a   b             i   j   a   b
-----------------------------------------------------------------------------
[  9   9  14  14]-0.05540 [ 10  10  58  58]-0.03419 [  9   9  15  14] 0.03329
[  9   9  14  15] 0.03329 [ 13  13  59  59]-0.03324 [ 13  13  58  58]-0.02964
[  9   9  15  15]-0.02497 [ 10  10  14  14]-0.02450 [ 10  10  20  20]-0.02423
[ 10  10  17  17]-0.02341 [ 13  13  14  14]-0.02318 [ 13   9  59  14]-0.02245
[  9  13  14  59]-0.02245 [ 13  13  57  57]-0.02205 [  8   8  15  15]-0.02111
-----------------------------------------------------------------------------
   Norm of T2AB vector (   367817 symmetry allowed elements):  0.3452162552.
-----------------------------------------------------------------------------
       Summary of iterative solution of CC equations 
      -----------------------------------------------------------
                       Correlation           Total
       Iteration         Energy              Energy
      -----------------------------------------------------------
            0        -0.483386976400    -535.403549413531  DIIS 
            1        -0.487476320388    -535.407638757519  DIIS 
            2        -0.498878047037    -535.419040484168  DIIS 
            3        -0.499273709529    -535.419436146660  DIIS 
            4        -0.500424856493    -535.420587293624  DIIS 
            5        -0.500499997063    -535.420662434194  DIIS 
            6        -0.500502327878    -535.420664765010  DIIS 
            7        -0.500502773210    -535.420665210341  DIIS 
            8        -0.500501809035    -535.420664246167  DIIS 
            9        -0.500502662565    -535.420665099696  DIIS 
           10        -0.500502906931    -535.420665344062  DIIS 
           11        -0.500503278040    -535.420665715172  DIIS 
           12        -0.500503266518    -535.420665703649  DIIS 
           13        -0.500503277344    -535.420665714476  DIIS 
           14        -0.500503273983    -535.420665711114  DIIS 
           15        -0.500503269810    -535.420665706941  DIIS 
           16        -0.500503274239    -535.420665711370  DIIS 
           17        -0.500503274521    -535.420665711653  DIIS 
           18        -0.500503275511    -535.420665712642  DIIS 
      -----------------------------------------------------------
      A miracle has come to pass. The CC iterations have converged.
      The reference energy is      -534.92016243713135 a.u.
      The correlation energy is      -0.50050327551106 a.u.
      The total energy is          -535.42066571264240 a.u.
 @CHECKOUT-I, Total execution time (CPU/WALL):       28.35/       3.56 seconds.
--executable xvcc finished with status     0 in        3.58 seconds (walltime).
 --invoking executable--
/home/asmola/.local/bin/xlambda
 @GETMEM-I,  Allocated    3814 MB of main memory.
 The Lambda equations are solved for CCSD.
  Initial lambda amplitudes: 
  Convergence information after     1 iterations: 
  Largest element of residual vector :  0.27374815E-02.
  Largest element of DIIS residual   :  0.27374815E-02.
  Convergence information after     2 iterations: 
  Largest element of residual vector :  0.59717422E-03.
  Largest element of DIIS residual   :  0.43618753E-03.
  Convergence information after     3 iterations: 
  Largest element of residual vector :  0.44339616E-03.
  Largest element of DIIS residual   :  0.42776684E-03.
  Convergence information after     4 iterations: 
  Largest element of residual vector :  0.14380671E-03.
  Largest element of DIIS residual   :  0.83282905E-04.
  Convergence information after     5 iterations: 
  Largest element of residual vector :  0.72472557E-04.
  Largest element of DIIS residual   :  0.49292959E-04.
  Convergence information after     6 iterations: 
  Largest element of residual vector :  0.37284337E-04.
  Largest element of DIIS residual   :  0.21496577E-04.
  Convergence information after     7 iterations: 
  Largest element of residual vector :  0.18816673E-04.
  Largest element of DIIS residual   :  0.11949720E-04.
  Convergence information after     8 iterations: 
  Largest element of residual vector :  0.87644085E-05.
  Largest element of DIIS residual   :  0.44743239E-05.
  Convergence information after     9 iterations: 
  Largest element of residual vector :  0.41892459E-05.
  Largest element of DIIS residual   :  0.20155810E-05.
  Convergence information after    10 iterations: 
  Largest element of residual vector :  0.12395843E-05.
  Largest element of DIIS residual   : -0.74705587E-06.
  Convergence information after    11 iterations: 
  Largest element of residual vector :  0.47842176E-06.
  Largest element of DIIS residual   : -0.21791059E-06.
  Convergence information after    12 iterations: 
  Largest element of residual vector : -0.15410293E-06.
  Largest element of DIIS residual   : -0.87367476E-07.
  Amplitude equations converged in    12 iterations.
 
  Full Fbar is constructed for CCSD second derivatives
 
      The lambda equations have converged.
 @CHECKOUT-I, Total execution time (CPU/WALL):       21.46/       2.69 seconds.
--executable xlambda finished with status     0 in        2.71 seconds (walltime).
 --invoking executable--
/home/asmola/.local/bin/xdens
 @GETMEM-I,  Allocated    3814 MB of main memory.
  CCSD density and intermediates are calculated.
  Unrelaxed density for DBOC is calculated
  sort for dboc
  ----------------------------------------------------------------------
                 Natural orbital occupation numbers
  ----------------------------------------------------------------------
  2.00000  1.99955  1.99955  1.99932  1.99932  1.99914  1.98136  1.97173
  1.96791  1.96345  1.95135  1.95128  1.93408  0.06236  0.02553  0.02225
  0.01917  0.01915  0.01803  0.01349  0.01193  0.01049  0.00927  0.00921
  0.00657  0.00604  0.00593  0.00575  0.00496  0.00468  0.00293  0.00147
  0.00143  0.00142  0.00139  0.00136  0.00131  0.00126  0.00105  0.00096
  0.00082  0.00080  0.00080  0.00075  0.00074  0.00072  0.00071  0.00062
  0.00057  0.00053  0.00051  0.00049  0.00044  0.00043  0.00041  0.00041
  0.00038  0.00035  0.00035  0.00029  0.00023  0.00019  0.00018  0.00014
  0.00013  0.00012  0.00010  0.00007  0.00006  0.00005  0.00005  0.00005
  0.00005  0.00003  0.00002  0.00001  0.00001  0.00001
  Trace of density matrix :  26.0000000000.
  ----------------------------------------------------------------------
  Density calculation successfully completed.
 @CHECKOUT-I, Total execution time (CPU/WALL):        1.74/       0.23 seconds.
--executable xdens finished with status     0 in        0.24 seconds (walltime).
 --invoking executable--
/home/asmola/.local/bin/xvdint
 @GETMEM-I,  Allocated    3814 MB of main memory.
 One- and two-electron integral derivatives are calculated
 for RHF-CC/MBPT hessians and dipole derivatives.
 Spherical gaussians are used.
  magnet F F
  Integrals for DBOC will be evaluated
 
   First contribution to E(DBOC):       34.38012 cm-1
   Second contribution to E(DBOC):    -2227.99826 cm-1
 Evaluation of 1e integral derivatives required    0.34 seconds.
 Evaluation of 2el integral derivatives
 Evaluation of 2e integral derivatives required   20.07 seconds.
 @CHECKOUT-I, Total execution time (CPU/WALL):       20.41/       3.05 seconds.
--executable xvdint finished with status     0 in        3.07 seconds (walltime).
 --invoking executable--
/home/asmola/.local/bin/xcphf
 @GETMEM-I,  Allocated    3814 MB of main memory.
 Coupled-perturbed HF (CPHF) equations 
 are solved for RHF-CC/MBPT hessian and dipole derivatives.
  irreducible representation Nr.                      1
  # geometric perturbations                          6
  irreducible representation Nr.                      2
  # geometric perturbations                          3
 There are 8 perturbations within irrep 1.
 CPHF converged after  26 iterations.
 There are 4 perturbations within irrep 2.
 CPHF converged after  22 iterations.

                     SCF static dipole polarizability
                     --------------------------------

                         Ex          Ey          Ez

            Ex      24.795136    0.938298    0.000000
            Ey       0.938298   13.386776    0.000000
            Ez       0.000000    0.000000   11.403977



                  SCF static dipole hyperpolarizability
                  -------------------------------------

                         Ex          Ey          Ez

            xx     -34.296323    6.572744    0.000000
            xy       6.572744    4.964517    0.000000
            xz       0.000000    0.000000   -2.640599
            yy       4.964517   10.520417    0.000000
            yz       0.000000    0.000000    1.622496
            zz      -2.640599    1.622496    0.000000



                   Diagonal Born-Oppenheimer Correction
                   ------------------------------------

  HF-SCF 1-el contribution to DBOC is   :         2.641406 cm-1
  Correlated 1-el contribtion to DBOC is:        36.487265 cm-1
  HF-SCF 2-el contribution to DBOC is   :      -329.112801 cm-1
  Correlated 2-el contribtion to DBOC is:        11.747439 cm-1
 
 @CHECKOUT-I, Total execution time (CPU/WALL):        2.49/       0.89 seconds.
--executable xcphf finished with status     0 in        0.91 seconds (walltime).
 --invoking executable--
/home/asmola/.local/bin/xsdcc
 @GETMEM-I,  Allocated    3814 MB of main memory.
 Vibrational frequencies and infrared intensities are calculated
 at the CCSD level within the harmonic approximation.
 CPHF coefficients for occ-occ block: U^x(i,j) = -1/2 S^x(i,j)
 CPHF coefficients for vrt-vrt block: U^x(a,b) = -1/2 S^x(a,b)
 Transformation of derivative integrals from AO to MO basis:
 RHF transformation
 Transformation of DIIII integral derivatives.
 1 pass through the AO integral derivative file was needed.
    888938 AO integral derivatives were read from file DIIII.
 Transformation of first index required    0.5 seconds.
 Transformation of remaining indices required    1.4 seconds.
   5101514 MO integral derivatives were written to file DERINT.
 Transformation of DIIJJ integral derivatives.
 1 pass through the AO integral derivative file was needed.
    386205 AO integral derivatives were read from file DIIJJ.
 Transformation of first index required    1.1 seconds.
 Transformation of remaining indices required    0.7 seconds.
   2310817 MO integral derivatives were written to file DERINT.
 Transformation of DIJIJ integral derivatives.
 1 pass through the AO integral derivative file was needed.
    735523 AO integral derivatives were read from file DIJIJ.
 Transformation of first index required    1.2 seconds.
 Transformation of remaining indices required    1.4 seconds.
   4621634 MO integral derivatives were written to file DERINT.
        MO basis integral derivatives are being calculated
             (Symmetry block 1, perturbation   1)
 First derivative of the wavefunction is calculated (Symmetry block 1, perturbation   1)
 Resorts of perturbed amplitudes and integrals required   0.1 seconds.
 Construction of <Phi|(dH_N/dx exp(T))c|0> required   1.3 seconds.
 Starting iterative solution of the perturbed CC equations.
 The DIIS procedure is used to accelerate convergence.
 Convergence criterion is 10**(-7).
 Maximum number of iterations is 100.
 Convergence information after     1 iterations: 
 Largest element of residual vector :  0.20767628E-01.
 Largest element of DIIS residual   :  0.20767628E-01.
 Convergence information after     2 iterations: 
 Largest element of residual vector :  0.53000607E-02.
 Largest element of DIIS residual   :  0.51901482E-02.
 Convergence information after     3 iterations: 
 Largest element of residual vector :  0.33400548E-02.
 Largest element of DIIS residual   :  0.29716093E-02.
 Convergence information after     4 iterations: 
 Largest element of residual vector :  0.13527235E-02.
 Largest element of DIIS residual   : -0.44668859E-03.
 Convergence information after     5 iterations: 
 Largest element of residual vector :  0.47776409E-03.
 Largest element of DIIS residual   :  0.26113754E-03.
 Convergence information after     6 iterations: 
 Largest element of residual vector :  0.17476678E-03.
 Largest element of DIIS residual   :  0.78224575E-04.
 Convergence information after     7 iterations: 
 Largest element of residual vector :  0.60758247E-04.
 Largest element of DIIS residual   :  0.34648488E-04.
 Convergence information after     8 iterations: 
 Largest element of residual vector :  0.23426908E-04.
 Largest element of DIIS residual   :  0.94919079E-05.
 Convergence information after     9 iterations: 
 Largest element of residual vector :  0.67321970E-05.
 Largest element of DIIS residual   :  0.44060628E-05.
 Convergence information after    10 iterations: 
 Largest element of residual vector :  0.30336318E-05.
 Largest element of DIIS residual   :  0.21157341E-05.
 Convergence information after    11 iterations: 
 Largest element of residual vector :  0.15090622E-05.
 Largest element of DIIS residual   :  0.78078917E-06.
 Convergence information after    12 iterations: 
 Largest element of residual vector : -0.83254421E-06.
 Largest element of DIIS residual   : -0.65189378E-06.
 Convergence information after    13 iterations: 
 Largest element of residual vector : -0.53907193E-06.
 Largest element of DIIS residual   : -0.30250017E-06.
 Convergence information after    14 iterations: 
 Largest element of residual vector : -0.26528759E-06.
 Largest element of DIIS residual   : -0.15468093E-06.
 Convergence information after    15 iterations: 
 Largest element of residual vector : -0.10040102E-06.
 Largest element of DIIS residual   :  0.32251601E-07.
 Perturbed amplitude equations converged in    15 iterations.
  Dominant contributions to perturbed wavefunction:
    9    9   56   14   0.0555876957 ABAB
    9    9   14   56   0.0555876957 ABAB
    9    9   14   14   0.0542551451 ABAB
    9    9   48   14   0.0444434135 ABAB
    9    9   14   48   0.0444434135 ABAB
    9    9   15   14  -0.0440027960 ABAB
    9    9   14   15  -0.0440027960 ABAB
    9    9   40   14   0.0410329807 ABAB
    9    9   14   40   0.0410329807 ABAB
    9    9   56   15  -0.0347695784 ABAB
    9    9   15   56  -0.0347695784 ABAB
    9    9   15   15   0.0335723405 ABAB
    9    9   50   14   0.0331579021 ABAB
    9    9   14   50   0.0331579021 ABAB
    9    9   48   15  -0.0278975899 ABAB
    9    9   15   48  -0.0278975899 ABAB
    9    9   40   15  -0.0274048555 ABAB
    9    9   15   40  -0.0274048555 ABAB
    9    9   30   14   0.0270174524 ABAB
    9    9   14   30   0.0270174524 ABAB
  Total CCSD gradient is    0.016647268942147.
  norm of converged amps   0.506079817176213     
 Starting iterative solution of the perturbed Lambda equations.
 The DIIS procedure is used to accelerate convergence.
 Convergence criterion is 10**(-7).
 Maximum number of iterations is 100.
 Convergence information after     1 iterations: 
 Largest element of residual vector :  0.17106151E-01.
 Largest element of DIIS residual   :  0.17106151E-01.
 Convergence information after     2 iterations: 
 Largest element of residual vector :  0.48349814E-02.
 Largest element of DIIS residual   :  0.47011212E-02.
 Convergence information after     3 iterations: 
 Largest element of residual vector :  0.28988166E-02.
 Largest element of DIIS residual   :  0.28063933E-02.
 Convergence information after     4 iterations: 
 Largest element of residual vector :  0.11996465E-02.
 Largest element of DIIS residual   : -0.37489860E-03.
 Convergence information after     5 iterations: 
 Largest element of residual vector :  0.42169278E-03.
 Largest element of DIIS residual   :  0.22276318E-03.
 Convergence information after     6 iterations: 
 Largest element of residual vector :  0.14666118E-03.
 Largest element of DIIS residual   :  0.71514398E-04.
 Convergence information after     7 iterations: 
 Largest element of residual vector :  0.54434447E-04.
 Largest element of DIIS residual   :  0.31185527E-04.
 Convergence information after     8 iterations: 
 Largest element of residual vector :  0.21328788E-04.
 Largest element of DIIS residual   :  0.90732446E-05.
 Convergence information after     9 iterations: 
 Largest element of residual vector :  0.63397530E-05.
 Largest element of DIIS residual   :  0.30161178E-05.
 Convergence information after    10 iterations: 
 Largest element of residual vector :  0.20690423E-05.
 Largest element of DIIS residual   :  0.14823938E-05.
 Convergence information after    11 iterations: 
 Largest element of residual vector :  0.10140147E-05.
 Largest element of DIIS residual   :  0.54742052E-06.
 Convergence information after    12 iterations: 
 Largest element of residual vector :  0.41796858E-06.
 Largest element of DIIS residual   : -0.31673734E-06.
 Convergence information after    13 iterations: 
 Largest element of residual vector : -0.27183832E-06.
 Largest element of DIIS residual   : -0.18068151E-06.
 Convergence information after    14 iterations: 
 Largest element of residual vector : -0.16809808E-06.
 Largest element of DIIS residual   : -0.12995877E-06.
 Convergence information after    15 iterations: 
 Largest element of residual vector : -0.93222237E-07.
 Largest element of DIIS residual   : -0.32900835E-07.
 Perturbed Lambda equations converged in    15 iterations.
  Dominant contributions to perturbed wavefunction:
    9    9   56   14   0.0518838974 ABAB
    9    9   14   56   0.0518838974 ABAB
    9    9   14   14   0.0488962040 ABAB
    9    9   48   14   0.0415747776 ABAB
    9    9   14   48   0.0415747776 ABAB
    9    9   15   14  -0.0399146406 ABAB
    9    9   14   15  -0.0399146406 ABAB
    9    9   40   14   0.0383524351 ABAB
    9    9   14   40   0.0383524351 ABAB
    9    9   56   15  -0.0323949259 ABAB
    9    9   15   56  -0.0323949259 ABAB
    9    9   50   14   0.0310276482 ABAB
    9    9   14   50   0.0310276482 ABAB
    9    9   15   15   0.0305228565 ABAB
    9    9   48   15  -0.0260623035 ABAB
    9    9   15   48  -0.0260623035 ABAB
    9    9   40   15  -0.0256299490 ABAB
    9    9   15   40  -0.0256299490 ABAB
    9    9   30   14   0.0252416099 ABAB
    9    9   14   30   0.0252416099 ABAB
  Total CCSD gradient is    0.009812512323054.
        The DBOC first-order density matrix is being calculated 
             (Symmetry block 1, perturbation   1)
 term  0.291807374128305     
 final tnorm1 -1.583873024331758E-002
  <0|L dT/dx|0> -1.583873024331758E-002
  norm contr. I: |<0|L dT/dx|0>|^2   2.508653757205831E-004
  norm contr. II: <0|[nabla(1+L)e-T][nabla e^T]|0>  0.291807374128305     
  total norm contribution  0.292058239504026     
 oo -5.822339952909482E-004
 vv  -2.03740638704256     
 vo -5.516390234668552E-002
  Correlated perturbed 1-el contribution to DBOC  -2.09315252338454       cm**-1
  SUM_I |dc_I/dx|^2 contribution to DBOC   1.09951446018522       cm**-1
 
  current total DBOC   1914.38781059113       cm**-1
 First-order density matrix is being calculated  (Symmetry block 1, perturbation   1)
 Calculation of the contributions of <pq||rs> to dI(i,j)/dx required   0.3 seconds.
 Calculation of the contributions of <pq||rs> to dI(a,b)/dx required   0.9 seconds.
 Calculation of the contributions of <pq||rs> to dI(i,a)/dx required   0.5 seconds.
 First-order Z-vector equations are solved for 1 perturbation.
 Convergence reached after  24 iterations.
        U*G(pq,rs) contribution is being calculated
             (Symmetry block 1, perturbation   1)

 CCSD contribution to force constants 

        1.8753232489        1.0697300079       -0.9699998474
       -1.1771691346       -0.9053234015        0.1074391267
        0.0000000000        0.0000000000        0.0000000000
        0.0000000000        0.0000000000        0.0000000000
        0.0000000000        0.0000000000        0.0000000000
        0.0000000000        0.0000000000        0.0000000000
        0.0000000000        0.0000000000        0.0000000000
        0.0000000000        0.0000000000        0.0000000000
        0.0000000000        0.0000000000        0.0000000000
        0.0000000000        0.0000000000        0.0000000000
        0.0000000000        0.0000000000        0.0000000000
        0.0000000000        0.0000000000        0.0000000000
        0.0000000000        0.0000000000        0.0000000000
        0.0000000000        0.0000000000        0.0000000000
        0.0000000000        0.0000000000        0.0000000000
        0.0000000000        0.0000000000        0.0000000000
        0.0000000000        0.0000000000        0.0000000000
        0.0000000000        0.0000000000        0.0000000000
        0.0000000000        0.0000000000        0.0000000000
        0.0000000000        0.0000000000        0.0000000000
        0.0000000000        0.0000000000        0.0000000000
        0.0000000000        0.0000000000        0.0000000000
        0.0000000000        0.0000000000        0.0000000000
        0.0000000000        0.0000000000        0.0000000000
        0.0000000000        0.0000000000        0.0000000000
        0.0000000000        0.0000000000        0.0000000000
        0.0000000000        0.0000000000        0.0000000000

 CCSD contribution to dipole derivatives 

       -0.0137777141        0.0000000000        0.0000000000
        0.0000000000        0.0000000000        0.0000000000
        0.0000000000        0.0000000000        0.0000000000
       -0.0044586495        0.0000000000        0.0000000000
        0.0000000000        0.0000000000        0.0000000000
        0.0000000000        0.0000000000        0.0000000000
        0.0000000000        0.0000000000        0.0000000000
        0.0000000000        0.0000000000        0.0000000000
[...]
 term  3.326453403619793E-002
 final tnorm  0.856914365644447     
  norm contr. I: |<0|L dT/dx|0>|^2   0.000000000000000E+000
  norm contr. II: <0|[nabla(1+L)e-T][nabla e^T]|0>  3.326453403619793E-002
  total norm contribution  3.326453403619793E-002
 oo  1.600299561879570E-003
 vv -8.192249307578379E-002
 vo -1.940276063090138E-002
  Correlated perturbed 1-el contribution to DBOC -9.972495414480560E-002  cm**-1
  SUM_I |dc_I/dx|^2 contribution to DBOC  5.728093916226694E-002  cm**-1
 
 
  The total diagonal Born-Oppenheimer correction (DBOC) is:      0.0085609067 a.u.
  The total diagonal Born-Oppenheimer correction (DBOC) is:       1878.901852 cm-1
 
 Total CC energy including DBOC  -535.412104805896     
 First-order density matrix is being calculated  (Symmetry block 2, perturbation   3)
 Calculation of the contributions of <pq||rs> to dI(i,j)/dx required   0.3 seconds.
 Calculation of the contributions of <pq||rs> to dI(a,b)/dx required   0.9 seconds.
 Calculation of the contributions of <pq||rs> to dI(i,a)/dx required   0.5 seconds.
 First-order Z-vector equations are solved for 1 perturbation.
 Convergence reached after  21 iterations.
        U*G(pq,rs) contribution is being calculated
             (Symmetry block 2, perturbation   3)

 CCSD contribution to force constants 

        0.0000000000        0.0000000000        0.0000000000
        0.0000000000        0.0000000000        0.0000000000
        0.0000000000        0.0000000000        0.0000000000
        0.0000000000        0.0000000000        0.0000000000
        0.0000000000        0.0000000000        0.0000000000
        0.0000000000        0.0000000000        0.0000000000
        0.0000000000        0.0000000000        0.0000000000
        0.0000000000        0.0000000000        0.0000000000
        0.0000000000        0.0000000000        0.0000000000
        0.0000000000        0.0000000000        0.0000000000
        0.0000000000        0.0000000000        0.0000000000
        0.0000000000        0.0000000000        0.0000000000
        0.0000000000        0.0000000000        0.0000000000
        0.0000000000        0.0000000000        0.0000000000
        0.0000000000        0.0000000000        0.0000000000
        0.0000000000        0.0000000000        0.0000000000
        0.0000000000        0.0000000000        0.0000000000
        0.0000000000        0.0000000000        0.0000000000
        0.0000000000        0.0000000000        0.0000000000
        0.0000000000        0.0000000000        0.0000000000
        0.0000000000        0.0000000000        0.0000000000
        0.0000000000        0.0000000000        0.0000000000
        0.0000000000        0.0000000000        0.0000000000
        0.0000000000        0.0000000000        0.0000000000
        0.0000000000        0.0000000000        0.0000000000
        0.0000000000        0.0000000000        0.0000000000
        0.0314389399       -0.0232146163       -0.0082243236

 CCSD contribution to dipole derivatives 

        0.0000000000        0.0000000000        0.0000000000
        0.0000000000        0.0000000000        0.0000000000
        0.0000000000        0.0000000000        0.0000000000
        0.0000000000        0.0000000000        0.0000000000
        0.0000000000        0.0000000000        0.0000000000
        0.0000000000        0.0000000000        0.0000000000
        0.0000000000        0.0000000000        0.0000000000
        0.0000000000        0.0000000000        0.0000000000
        0.0000000000        0.0000000000        0.0060632354
 @CHECKOUT-I, Total execution time (CPU/WALL):       71.47/       9.49 seconds.
--executable xsdcc finished with status     0 in        9.52 seconds (walltime).
 --invoking executable--
/home/asmola/.local/bin/xanti
 @GETMEM-I,  Allocated    3814 MB of main memory.
 CCSD MO derivative gammas will be sorted to Mulliken order.
 @CHECKOUT-I, Total execution time (CPU/WALL):        1.34/       0.18 seconds.
--executable xanti finished with status     0 in        0.19 seconds (walltime).
 --invoking executable--
/home/asmola/.local/bin/xbcktrn
 @GETMEM-I,  Allocated    3814 MB of main memory.
 CCSD MO derivative gammas will be transformed to the AO basis.
 @CHECKOUT-I, Total execution time (CPU/WALL):        1.22/       0.16 seconds.
--executable xbcktrn finished with status     0 in        0.17 seconds (walltime).
 --invoking executable--
/home/asmola/.local/bin/xvdint
 @GETMEM-I,  Allocated    3814 MB of main memory.
 One- and two-electron integral derivatives are calculated
 for RHF-CC/MBPT hessians and dipole derivatives.
 Spherical gaussians are used.
  magnet F F
 Evaluation of 2el integral derivatives

                      Two-electron integral gradient
                      ------------------------------

                         O #1 x     0.0000000000
                         O #1 y     0.0000000000
                         H #2 x     0.0000000000
                         H #2 y     0.0000000000
                         CL#3 x     0.0000000000
                         CL#3 y     0.0000000000


 O #1       0.0000000000            0.0000000000           -0.0068217616
 H #2       0.0000000000            0.0000000000            0.0049162169
 CL#3       0.0000000000            0.0000000000            0.0019055447


 Evaluation of 2e integral derivatives required   20.00 seconds.
  contribution to Hessian
        0.0000000000        0.0000000000        0.0000000000
        0.0000000000        0.0000000000        0.0000000000
       -0.0068217616        0.0049162169        0.0019055447
 @CHECKOUT-I, Total execution time (CPU/WALL):       20.01/       2.77 seconds.
--executable xvdint finished with status     0 in        2.79 seconds (walltime).
 --invoking executable--
/home/asmola/.local/bin/xanti
 @GETMEM-I,  Allocated    3814 MB of main memory.
 CCSD MO gammas will be sorted to Mulliken order.
 @CHECKOUT-I, Total execution time (CPU/WALL):        1.63/       0.24 seconds.
--executable xanti finished with status     0 in        0.25 seconds (walltime).
 --invoking executable--
/home/asmola/.local/bin/xbcktrn
 @GETMEM-I,  Allocated    3814 MB of main memory.
 CCSD MO gammas will be transformed to the AO basis.
 @CHECKOUT-I, Total execution time (CPU/WALL):        1.09/       0.15 seconds.
--executable xbcktrn finished with status     0 in        0.16 seconds (walltime).
 --invoking executable--
/home/asmola/.local/bin/xvdint
 @GETMEM-I,  Allocated    3814 MB of main memory.
 One- and two-electron integral derivatives are calculated
 for RHF-CC/MBPT hessians and dipole derivatives.
 Spherical gaussians are used.
  magnet F F

                     Kinetic energy integral gradient
                     --------------------------------

                         O #1 x     0.1321058555
                         O #1 y    -0.6579127694
                         H #2 x     0.2608120052
                         H #2 y     0.6625614902
                         CL#3 x    -0.3929178608
                         CL#3 y    -0.0046487207


 O #1       0.1321058555           -0.6579127694            0.0000000000
 H #2       0.2608120052            0.6625614902            0.0000000000
 CL#3      -0.3929178608           -0.0046487207            0.0000000000



                   Nuclear attraction integral gradient
                   ------------------------------------

                         O #1 x   -24.8089963987
                         O #1 y     7.4773840173
                         H #2 x    -4.1766524281
                         H #2 y    -7.3902789578
                         CL#3 x    28.9856488269
                         CL#3 y    -0.0871050595


 O #1     -24.8089963987            7.4773840173            0.0000000000
 H #2      -4.1766524281           -7.3902789578            0.0000000000
 CL#3      28.9856488269           -0.0871050595            0.0000000000



                      Reorthonormalization gradient
                      -----------------------------

                         O #1 x     0.0000000000
                         O #1 y     0.0000000000
                         H #2 x     0.0000000000
                         H #2 y     0.0000000000
                         CL#3 x     0.0000000000
                         CL#3 y     0.0000000000


 O #1       0.0000000000            0.0000000000            0.0000000000
 H #2       0.0000000000            0.0000000000            0.0000000000
 CL#3       0.0000000000            0.0000000000            0.0000000000



                     Kinetic energy integral Hessian
                     -------------------------------


           Symmetry 1

           O #1 x      O #1 y      H #2 x      H #2 y      CL#3 x      CL#3 y

 O #1 x   -0.083426
 O #1 y    0.422787    0.196916
 H #2 x    0.507074   -0.421211   -0.507040
 H #2 y   -0.421211   -0.424056    0.419752    0.423629
 CL#3 x   -0.423648   -0.001576   -0.000034    0.001459    0.423682
 CL#3 y   -0.001576    0.227140    0.001459    0.000427    0.000117   -0.227568


           Symmetry 2

           O #1 z      H #2 z      CL#3 z

 O #1 z   -0.973355
 H #2 z    0.739236   -0.738823
 CL#3 z    0.234119   -0.000413   -0.233706




           O #1 x      O #1 y      O #1 z      H #2 x      H #2 y      H #2 z

 O #1 x   -0.083426
 O #1 y    0.422787    0.196916
 O #1 z    0.000000    0.000000   -0.973355

 H #2 x    0.507074   -0.421211    0.000000   -0.507040
 H #2 y   -0.421211   -0.424056    0.000000    0.419752    0.423629
 H #2 z    0.000000    0.000000    0.739236    0.000000    0.000000   -0.738823

 CL#3 x   -0.423648   -0.001576    0.000000   -0.000034    0.001459    0.000000
 CL#3 y   -0.001576    0.227140    0.000000    0.001459    0.000427    0.000000
 CL#3 z    0.000000    0.000000    0.234119    0.000000    0.000000   -0.000413


           CL#3 x      CL#3 y      CL#3 z

 CL#3 x    0.423682
 CL#3 y    0.000117   -0.227568
 CL#3 z    0.000000    0.000000   -0.233706




                   Nuclear attraction integral Hessian
                   -----------------------------------


           Symmetry 1

           O #1 x      O #1 y      H #2 x      H #2 y      CL#3 x      CL#3 y

 O #1 x   -8.293589
 O #1 y   -2.318961    9.649089
 H #2 x   -6.008475    3.171629    5.340151
 H #2 y    3.089707    0.970370   -3.647566   -0.923738
 CL#3 x   14.302065   -0.852669    0.668325    0.557859  -14.970389
 CL#3 y   -0.770747  -10.619459    0.475937   -0.046632    0.294810   10.666091


           Symmetry 2

           O #1 z      H #2 z      CL#3 z

 O #1 z   18.093597
 H #2 z   -7.680351    8.036982
 CL#3 z  -10.413246   -0.356630   10.769876




           O #1 x      O #1 y      O #1 z      H #2 x      H #2 y      H #2 z

 O #1 x   -8.293589
 O #1 y   -2.318961    9.649089
 O #1 z    0.000000    0.000000   18.093597

 H #2 x   -6.008475    3.171629    0.000000    5.340151
 H #2 y    3.089707    0.970370    0.000000   -3.647566   -0.923738
 H #2 z    0.000000    0.000000   -7.680351    0.000000    0.000000    8.036982

 CL#3 x   14.302065   -0.852669    0.000000    0.668325    0.557859    0.000000
 CL#3 y   -0.770747  -10.619459    0.000000    0.475937   -0.046632    0.000000
 CL#3 z    0.000000    0.000000  -10.413246    0.000000    0.000000   -0.356630


           CL#3 x      CL#3 y      CL#3 z

 CL#3 x  -14.970389
 CL#3 y    0.294810   10.666091
 CL#3 z    0.000000    0.000000   10.769876




                Highest order reorthonormalization Hessian
                ------------------------------------------


           Symmetry 1

           O #1 x      O #1 y      H #2 x      H #2 y      CL#3 x      CL#3 y

 O #1 x    0.000000
 O #1 y    0.000000    0.000000
 H #2 x    0.000000    0.000000    0.000000
 H #2 y    0.000000    0.000000    0.000000    0.000000
 CL#3 x    0.000000    0.000000    0.000000    0.000000    0.000000
 CL#3 y    0.000000    0.000000    0.000000    0.000000    0.000000    0.000000


           Symmetry 2

           O #1 z      H #2 z      CL#3 z

 O #1 z    0.000000
 H #2 z    0.000000    0.000000
 CL#3 z    0.000000    0.000000    0.000000




           O #1 x      O #1 y      O #1 z      H #2 x      H #2 y      H #2 z


           CL#3 x      CL#3 y      CL#3 z




                Electronic contributions to dipole moment
                -----------------------------------------

                               au             Debye

                    x      1.71885308      4.36888951
                    y      0.18985214      0.48255608

  Conversion factor used: 1 a.u. =   2.54174691 Debye 



   Electronic contributions to static part of dipole moment derivatives
   --------------------------------------------------------------------


                     Total dipole moment derivatives
                     -------------------------------


           Symmetry 1
                              Ex             Ey

               O #1 x    -8.56678263    -0.17227386
               O #1 y    -0.62167338    -8.71728549
               H #2 x    -0.47800581     0.15020467
               H #2 y     0.61613750    -0.33578469
               CL#3 x   -16.95521157     0.02206919
               CL#3 y     0.00553588   -16.94692982

           Symmetry 2
                              Ez

               O #1 z    -8.28666419
               H #2 z    -0.74676341
               CL#3 z   -16.96657240



                       Ex          Ey          Ez

      O #1    x   -8.566783   -0.172274    0.000000
      O #1    y   -0.621673   -8.717285    0.000000
      O #1    z    0.000000    0.000000   -8.286664

      H #2    x   -0.478006    0.150205    0.000000
      H #2    y    0.616138   -0.335785    0.000000
      H #2    z    0.000000    0.000000   -0.746763

      CL#3    x  -16.955212    0.022069    0.000000
      CL#3    y    0.005536  -16.946930    0.000000
      CL#3    z    0.000000    0.000000  -16.966572

 Evaluation of 1e integral derivatives required    0.35 seconds.
 Evaluation of 2el integral derivatives

                      Two-electron integral gradient
                      ------------------------------

                         O #1 x    11.9004052628
                         O #1 y    -3.6847426861
                         H #2 x     2.0872119846
                         H #2 y     3.7251316122
                         CL#3 x   -13.9876172474
                         CL#3 y    -0.0403889260


 O #1      11.9004052628           -3.6847426861            0.0000000000
 H #2       2.0872119846            3.7251316122            0.0000000000
 CL#3     -13.9876172474           -0.0403889260            0.0000000000


 Evaluation of 2e integral derivatives required   33.84 seconds.

                            Molecular gradient
                            ------------------

                         O #1 x    -0.1049963401
                         O #1 y     0.2881844819
                         H #2 x    -0.1224991721
                         H #2 y    -0.2932707778
                         CL#3 x     0.2274955122
                         CL#3 y     0.0050862959


 O #1      -0.1049963401            0.2881844819            0.0000000000
 H #2      -0.1224991721           -0.2932707778            0.0000000000
 CL#3       0.2274955122            0.0050862959            0.0000000000


  Molecular gradient norm 0.497E+00

                            Molecular hessian
                            -----------------


           Symmetry 1

           O #1 x      O #1 y      H #2 x      H #2 y      CL#3 x      CL#3 y

 O #1 x    2.578442
 O #1 y    0.751035    3.538852
 H #2 x   -1.310869   -1.063559    1.399921
 H #2 y   -0.841560   -3.299184    0.774685    3.275384
 CL#3 x   -1.267573   -0.045434   -0.010834    0.077460    1.278407
 CL#3 y    0.090526   -0.239668   -0.101662   -0.009854    0.011136    0.249522


           Symmetry 2

           O #1 z      H #2 z      CL#3 z

 O #1 z    0.095642
 H #2 z    0.081903   -0.062252
 CL#3 z   -0.177545   -0.024216    0.201761




           O #1 x      O #1 y      O #1 z      H #2 x      H #2 y      H #2 z

 O #1 x    2.578442
 O #1 y    0.751035    3.538852
 O #1 z    0.000000    0.000000    0.095642

 H #2 x   -1.310869   -1.063559    0.000000    1.399921
 H #2 y   -0.841560   -3.299184    0.000000    0.774685    3.275384
 H #2 z    0.000000    0.000000    0.081903    0.000000    0.000000   -0.062252

 CL#3 x   -1.267573   -0.045434    0.000000   -0.010834    0.077460    0.000000
 CL#3 y    0.090526   -0.239668    0.000000   -0.101662   -0.009854    0.000000
 CL#3 z    0.000000    0.000000   -0.177545    0.000000    0.000000   -0.024216


           CL#3 x      CL#3 y      CL#3 z

 CL#3 x    1.278407
 CL#3 y    0.011136    0.249522
 CL#3 z    0.000000    0.000000    0.201761




                           Total dipole moment
                           -------------------

                               au             Debye

                    x     -0.13332113     -0.33886856
                    y     -0.60121166     -1.52812788

  Conversion factor used: 1 a.u. =   2.54174691 Debye 



                     Total dipole moment derivatives
                     -------------------------------


           Symmetry 1
                              Ex             Ey

               O #1 x    -0.42202962    -0.04396770
               O #1 y    -0.17629076    -0.18508337
               H #2 x     0.24417829     0.02331333
               H #2 y     0.10772907     0.20427266
               CL#3 x     0.17785087     0.02065445
               CL#3 y     0.06856196    -0.01918926

           Symmetry 2
                              Ez

               O #1 z    -0.36655268
               H #2 z     0.34668557
               CL#3 z     0.01986721



                       Ex          Ey          Ez

      O #1    x   -0.422030   -0.043968    0.000000
      O #1    y   -0.176291   -0.185083    0.000000
      O #1    z    0.000000    0.000000   -0.366553

      H #2    x    0.244178    0.023313    0.000000
      H #2    y    0.107729    0.204273    0.000000
      H #2    z    0.000000    0.000000    0.346686

      CL#3    x    0.177851    0.020654    0.000000
      CL#3    y    0.068562   -0.019189    0.000000
      CL#3    z    0.000000    0.000000    0.019867

  Molecular gradient does not satisfy rotational invariance condition.
   rotational invariance in yz-plane :        0.0000E+00
   rotational invariance in xz-plane :        0.0000E+00
   rotational invariance in xy-plane :        -.1170E-02
 @CHECKOUT-I, Total execution time (CPU/WALL):       34.19/       4.90 seconds.
--executable xvdint finished with status     0 in        4.92 seconds (walltime).
 --invoking executable--
/home/asmola/.local/bin/xjoda
  @GTFLGS-I, Hessian will be transformed to curvilinear coordinates.
  @GTFLGS-I, Hessian will be transformed to curvilinear coordinates.
  igrd and ihes are                      0                     1
  gradient from JOBARC 
  -0.104996340096489   0.288184481933764   0.000000000000000
  -0.122499172120239  -0.293270777815194   0.000000000000000
   0.227495512216733   0.005086295881415   0.000000000000000
 
  @PROJFCM-I, Projecting force constant matrix onto totally symmetric subspace.
  Largest difference between matrix elements of symmetrized
  and unsymmetrized FCM :     0.0000000000E+00.
 
  Summary of diagonal Born-Oppenheimer correction at the correlated level
  The total diagonal Born-Oppenheimer correction (DBOC) is:      0.0085609067 a.u.
  The total diagonal Born-Oppenheimer correction (DBOC) is:       1878.901852 cm-1
  The total diagonal Born-Oppenheimer correction (DBOC) is:            22.477 kJ/mole
  hellooooooo 
  readis is  F
 
 @CHECKOUT-I, Total execution time (CPU/WALL):        0.01/       0.01 seconds.
--executable xjoda finished with status     0 in        0.02 seconds (walltime).
  The final electronic energy is      -535.412104805896206 a.u. 
  This computation required                          132.13 seconds (walltime).
