
 Working directory              : /tmp/asmola/molpro.zyLPZPdR90/
 Global scratch directory       : /tmp/asmola/molpro.zyLPZPdR90/
 Wavefunction directory         : /home/asmola/wfu/
 Main file repository           : /tmp/asmola/molpro.zyLPZPdR90/

 id        : uclcc

 Nodes                        nprocs
 vincent.theory.phys.ucl.ac.uk    1
 GA implementation: MPI file
 GA implementation (serial work in mppx): MPI file

 Using customized tuning parameters: mindgm=1; mindgv=20; mindgc=4; mindgr=1; noblas=0; minvec=7
 default implementation of scratch files=df  


 Variables initialized (1015), CPU time= 0.00 sec
 ***,HOCl CV correction
 memory,500,m;
 
 geometry={angstrom
 o
 h , 1, roh
 cl , 1, rocl, 2, alpha
 }
 
 roh = 0.96446195
 rocl = 1.68888476
 alpha = 103.0
 
 basis=aug-cc-pVQZ-f12
 hf
 {ccsd(t)-f12,ri_basis=cc-pV5Z/jkfit,df_basis=aug-cc-pwCV5Z/mp2fit,gem_beta=1.4}
 
 E_pVQZ = ENERGY(2)
 
 core,1
 basis=aug-cc-pCVQZ-f12
 hf
 {ccsd(t)-f12,ri_basis=cc-pV5Z/jkfit,df_basis=aug-cc-pwCV5Z/mp2fit,gem_beta=1.4}
 
 E_pCVQZ = ENERGY(2)
 
 E_CV = E_pCVQZ - E_pVQZ
 
                                                                                 ! Output the energy
 xxx = "mmm"
 point = 1
 text ### HOCl
 table,xxx,roh,rocl,alpha,E_CV,point
 DIGITS, 0, 8, 8, 8, 14, 12, 4
 Commands initialized (818), CPU time= 0.01 sec, 672 directives.
 Default parameters read. Elapsed time= 0.05 sec

 Checking input...
 Passed
1


                                         ***  PROGRAM SYSTEM MOLPRO  ***
                                       Copyright, TTI GmbH Stuttgart, 2015
                                    Version 2022.1 linked Mar  3 2022 23:20:00


 **********************************************************************************************************************************
 LABEL *   HOCl CV correction                                                            
  (12 PROC) 64 bit serial version                                                        DATE: 21-Jul-25          TIME: 10:16:51  
 **********************************************************************************************************************************

 SHA1:             31073afc4d8441e10870424e0d77336a33bc4286
 **********************************************************************************************************************************

 Memory per process:       500 MW
 Total memory per node:    500 MW

 GA preallocation disabled
 GA check disabled

 Variable memory set to 500.0 MW

 SETTING ROH            =         0.96446195                                  
 SETTING ROCL           =         1.68888476                                  
 SETTING ALPHA          =       103.00000000                                  
 SETTING BASIS          =    AUG-CC-PVQZ-F12


 Recomputing integrals since basis changed


 Using spherical harmonics

 Library entry O      S cc-pVQZ-F12          selected for orbital group  1
 Library entry O      P cc-pVQZ-F12          selected for orbital group  1
 Library entry O      D cc-pVQZ-F12          selected for orbital group  1
 Library entry O      D vqz-f12-diff         selected for orbital group  1
 Library entry O      F cc-pVQZ-F12          selected for orbital group  1
 Library entry O      F vqz-f12-diff         selected for orbital group  1
 Library entry O      G cc-pVQZ-F12          selected for orbital group  1
 Library entry O      G vqz-f12-diff         selected for orbital group  1
 Library entry H      S cc-pVQZ-F12          selected for orbital group  2
 Library entry H      P cc-pVQZ-F12          selected for orbital group  2
 Library entry H      P vqz-f12-diff         selected for orbital group  2
 Library entry H      D cc-pVQZ-F12          selected for orbital group  2
 Library entry H      D vqz-f12-diff         selected for orbital group  2
 Library entry H      F cc-pVQZ-F12          selected for orbital group  2
 Library entry H      F vqz-f12-diff         selected for orbital group  2
 Library entry CL     S cc-pVQZ-F12          selected for orbital group  3
 Library entry CL     P cc-pVQZ-F12          selected for orbital group  3
 Library entry CL     D cc-pVQZ-F12          selected for orbital group  3
 Library entry CL     D vqz-f12-diff         selected for orbital group  3
 Library entry CL     F cc-pVQZ-F12          selected for orbital group  3
 Library entry CL     F vqz-f12-diff         selected for orbital group  3
 Library entry CL     G cc-pVQZ-F12          selected for orbital group  3
 Library entry CL     G vqz-f12-diff         selected for orbital group  3


 PROGRAM * SEWARD (Integral evaluation for generally contracted gaussian basis sets)     Author: Roland Lindh, 1990

 Geometry written to block  1 of record 700

 Orientation using atomic masses  
 Molecule type: Asymmetric top
 Symmetry elements: X
 Rotational constants:      14.7760974     15.1401499    614.5055928 GHz  (calculated with average atomic masses)

 Point group  Cs  



 ATOMIC COORDINATES

 NR  ATOM    CHARGE       X              Y              Z

   1  O       8.00    0.000000000    0.118821474   -2.145960667
   2  H       1.00    0.000000000   -1.639489684   -2.625647468
   3  CL     17.00    0.000000000   -0.007011115    1.043087417

 Bond lengths in Bohr (Angstrom)

 1-2  1.822568943  1-3  3.191529652
     ( 0.964461950)     ( 1.688884760)

 Bond angles

  2-1-3  103.00000000

 NUCLEAR CHARGE:                   26
 NUMBER OF PRIMITIVE AOS:         399
 NUMBER OF SYMMETRY AOS:          319
 NUMBER OF CONTRACTIONS:          274   (  172A'  +  102A"  )
 NUMBER OF INNER CORE ORBITALS:     1   (    1A'  +    0A"  )
 NUMBER OF OUTER CORE ORBITALS:     5   (    4A'  +    1A"  )
 NUMBER OF VALENCE ORBITALS:        9   (    7A'  +    2A"  )


 NUCLEAR REPULSION ENERGY   51.23575142


 Eigenvalues of metric

         1 0.277E-05 0.290E-05 0.142E-04 0.257E-04 0.462E-04 0.834E-04 0.105E-03 0.160E-03
         2 0.291E-05 0.181E-03 0.462E-03 0.611E-03 0.876E-03 0.215E-02 0.255E-02 0.416E-02


 Contracted 2-electron integrals neglected if value below      1.0D-12
 AO integral compression algorithm  1   Integral accuracy      1.0D-12

     1885.864 MB (compressed) written to integral file ( 52.9%)


 NUMBER OF SORTED TWO-ELECTRON INTEGRALS:  358946914.     BUFFER LENGTH:  32768
 NUMBER OF SEGMENTS:  23  SEGMENT LENGTH:   15999503      RECORD LENGTH: 524288

 Memory used in sort:      16.56 MW

 SORT1 READ   445837897. AND WROTE   335392583. INTEGRALS IN    969 RECORDS. CPU TIME:     3.73 SEC, REAL TIME:     5.09 SEC
 SORT2 READ   335392583. AND WROTE   358946914. INTEGRALS IN   7194 RECORDS. CPU TIME:     3.55 SEC, REAL TIME:     4.54 SEC

 FILE SIZES:   FILE 1:  1917.9 MBYTE,  FILE 4:  4064.3 MBYTE,   TOTAL:   5982.2 MBYTE

 OPERATOR DM      FOR CENTER  0  COORDINATES:    0.000000    0.000000    0.000000


 **********************************************************************************************************************************
 DATASETS  * FILE   NREC   LENGTH (MB)   RECORD NAMES
              1      19     1503.27       500      610      700      900      950      970     1000      129      960     1100   
                                          VAR    BASINP    GEOM    SYMINP    ZMAT    AOBASIS   BASIS     P2S    ABASIS      S 
                                         1400     1410     1200     1210     1080     1600     1650     1300     1700   
                                           T        V       H0       H01     AOSYM     SMH    MOLCAS    ERIS     OPER   

 PROGRAMS   *        TOTAL       INT
 CPU TIMES  *       166.50    166.40
 REAL TIME  *        43.47 SEC
 DISK USED  *         5.57 GB
 **********************************************************************************************************************************


 Program * Restricted Hartree-Fock

 Orbital guess generated from atomic densities. Full valence occupancy:   12   3

 Initial occupancy:  10   3

 NELEC=   26   SYM=1   MS2= 0   THRE=1.0D-08   THRD=3.2D-06   THRG=3.2D-06  HFMA2=F  DIIS_START=2   DIIS_MAX=10   DIIS_INCORE=F

 Level shifts:    0.00 (CLOSED)    0.00 (OPEN)    0.30 (GAP_MIN)

 ITER           ETOT              DE          GRAD        DDIFF     DIIS  NEXP   TIME(IT)  TIME(TOT)  DIAG
   1     -534.90826100    -534.90826100     0.00D+00     0.50D-01     0     0      15.20     31.86    start
   2     -534.93189138      -0.02363038     0.41D-02     0.28D-02     1     0      16.02     47.88    diag
   3     -534.93405195      -0.00216057     0.14D-02     0.72D-03     2     0      16.05     63.93    diag
   4     -534.93433146      -0.00027951     0.38D-03     0.29D-03     3     0      15.37     79.30    diag
   5     -534.93438648      -0.00005502     0.16D-03     0.10D-03     4     0      15.38     94.68    diag
   6     -534.93439361      -0.00000713     0.49D-04     0.35D-04     5     0      15.96    110.64    diag
   7     -534.93439458      -0.00000097     0.13D-04     0.16D-04     6     0      16.18    126.82    diag
   8     -534.93439471      -0.00000013     0.46D-05     0.75D-05     7     0      17.63    144.45    fixocc
   9     -534.93439472      -0.00000001     0.14D-05     0.22D-05     8     0      15.82    160.27    diag
  10     -534.93439472      -0.00000000     0.32D-06     0.32D-06     0     0      16.14    176.41    diag/orth

 Final occupancy:  10   3

 !RHF STATE 1.1 Energy               -534.934394720392
  RHF One-electron energy            -840.947001945276
  RHF Two-electron energy             254.776855801647
  RHF Kinetic energy                  534.814796349373
  RHF Nuclear energy                   51.235751423237
  RHF Virial quotient                  -1.000223625771

 !RHF STATE 1.1 Dipole moment           0.00000000    -0.62133613    -0.13460899
 Dipole moment /Debye                   0.00000000    -1.57927891    -0.34214192

 Orbital energies:

           1.1          2.1          3.1          4.1          5.1          6.1          7.1          8.1          9.1         10.1
   -104.889825   -20.640465   -10.610186    -8.077127    -8.074967    -1.413281    -1.061310    -0.722213    -0.605184    -0.468530

          11.1         12.1
      0.038460     0.059862

           1.2          2.2          3.2          4.2          5.2
     -8.074824    -0.614473    -0.444246     0.084169     0.123790


 HOMO      3.2    -0.444246 =     -12.0885eV
 LUMO     11.1     0.038460 =       1.0466eV
 LUMO-HOMO         0.482706 =      13.1351eV

 Orbitals saved in record  2100.2


 **********************************************************************************************************************************
 DATASETS  * FILE   NREC   LENGTH (MB)   RECORD NAMES
              1      19     1503.27       500      610      700      900      950      970     1000      129      960     1100   
                                          VAR    BASINP    GEOM    SYMINP    ZMAT    AOBASIS   BASIS     P2S    ABASIS      S 
                                         1400     1410     1200     1210     1080     1600     1650     1300     1700   
                                           T        V       H0       H01     AOSYM     SMH    MOLCAS    ERIS     OPER   

              2       4        1.02       700     1000      520     2100   
                                         GEOM     BASIS   MCVARS     RHF  

 PROGRAMS   *        TOTAL    HF-SCF       INT
 CPU TIMES  *       342.94    176.44    166.40
 REAL TIME  *        69.99 SEC
 DISK USED  *         5.57 GB
 **********************************************************************************************************************************


 PROGRAM * CCSD (Closed-shell coupled cluster)     Authors: C. Hampel, H.-J. Werner, 1991, M. Deegan, P.J. Knowles, 1992

                                  CCSD-F12 implementation by  H.-J. Werner, 2007

                   Density fitting integral evaluation by F.R. Manby, 2003,2007, G. Knizia, 2010


 Basis set VQZ-F12/JKFIT generated.      Number of basis functions:   402 
 Basis set V5Z/JKFIT generated.          Number of basis functions:   410 
 Basis set AUG-CC-PWCV5Z/MP2FIT generated. Number of basis functions:   866 

 Convergence thresholds:  THRVAR = 1.00D-08  THRDEN = 1.00D-06

 CCSD(T)     terms to be evaluated (factor= 1.000)


 Number of core orbitals:           6 (   5   1 )
 Number of closed-shell orbitals:   7 (   5   2 )
 Number of external orbitals:     261 ( 162  99 )

 Molecular orbitals read from record     2100.2  Type=RHF/CANONICAL  

 MP2-F12 correlation treatment (H.-J. Werner, 2006)
 ==================================================

 Using MP2-F12 with ansatz 3C(FIX)

 Using projected zeroth-order Hamiltonian (+Z)

 FOCKRIB=T FOCKRIC=T FOCKRIP=T CABSP=T CABSA=T CABSK=T CABSF=T GBC=F EBC=F DMAT=T NOFIK=T NOPAO=1 SOLVE=-1  USEPAO=0
 EXCH_A= T EXCH_B= F EXCH_C= F EXCH_P= F

 Geminal basis:    OPTFULL  GEM_TYPE=SLATER  BETA=1.4  NGEM=6

 Optimizing Gaussian exponents for each gem_beta

 Geminal optimization for beta= 1.4000
 Weight function:   m=0, omega= 1.8329

 Augmented Hessian optimization of geminal fit. Trust ratio= 0.40000
 Convergence reached after   2 iterations. Final gradient= 5.75D-17, Step= 7.43D-07, Delta= 1.11D-09

 Alpha:                 0.32335     1.22090     4.06503    13.28654    49.65231   274.64957
 Coeff:                 0.21345     0.30057     0.20316     0.12774     0.08045     0.05014


 Symmetry turned off. Reference energy:       -534.934394720393

 All pairs explicitly correlated. Number of r12-pairs:           28

 Excluding core orbitals from MO domains

 AO(A)-basis ORBITAL           loaded. Number of functions:     274
 RI(R)-basis V5Z/JKFIT         loaded. Number of functions:     410
 DF-basis VQZ-F12/JKFIT        loaded. Number of functions:     402

 Screening thresholds:   THRAO=  1.00D-10  THRMO=  1.00D-09  THRPROD=  1.00D-09
                         THRSW=  1.00D-05  THROV=  1.00D-12  THRAOF12= 1.00D-08

 CPU time for Fock operators                     13.14 sec

 Construction of ABS:
 Smallest eigenvalue of S          9.06E-05  (threshold= 1.00E-08)
 Ratio eigmin/eigmax               1.54E-05  (threshold= 1.00E-09)
 Smallest eigenvalue of S kept     9.06E-05  (threshold= 9.06E-05, 0 functions deleted, 410 kept)

 Construction of CABS:
 Smallest eigenvalue of S          2.85E-09  (threshold= 1.00E-08)
 Ratio eigmin/eigmax               2.85E-09  (threshold= 1.00E-09)
 Smallest eigenvalue of S kept     1.49E-08  (threshold= 1.49E-08, 2 functions deleted, 408 kept)

 CPU time for CABS singles                        0.26 sec

 CABS-singles contribution of  -0.00015751 patched into reference energy.
 New reference energy        -534.93455223

 AO(A)-basis ORBITAL           loaded. Number of functions:     274
 RI(R)-basis V5Z/JKFIT         loaded. Number of functions:     410
 DF-basis AUG-CC-PWCV5Z/MP2FIT loaded. Number of functions:     866

 Screening thresholds:   THRAO=  1.00D-10  THRMO=  1.00D-09  THRPROD=  1.00D-09
                         THRSW=  1.00D-05  THROV=  1.00D-12  THRAOF12= 1.00D-08

 CPU time for 3-index integral evaluation        28.99 sec
 CPU time for first  half transformation          4.48 sec ( 2638.3 MFLOP/sec)
 CPU time for second half transformation          0.34 sec (  889.1 MFLOP/sec)
 CPU time for sorting                             0.14 sec
 CPU time for fitting                             0.35 sec (21688.7 MFLOP/sec)
 CPU time for tilde quantities                    0.52 sec (19868.1 MFLOP/sec)
 CPU time for assembly                            1.67 sec (32406.8 MFLOP/sec)
 CPU time for tranop_f12                          3.00 sec (15050.9 MFLOP/sec)
 CPU time for f12 integrals (total)              47.86 sec, Elapsed time:     18.48 sec
 CPU time for f12 matrices (total)                0.93 sec, Elapsed time:      0.15 sec

 Diagonal F12 approximation with fixed coefficients:  TSING= 0.500,  TTRIP= 0.250 (scaled by -1/beta)

 DF-MP2-F12 energy corrections:
 ==============================
 Approx.                                    Singlet             Triplet             Total
 DF-MP2-F12/3*C(DX,FIX)                -0.023983589286     -0.001762953999     -0.025746543285
 DF-MP2-F12/3*C(FIX)                   -0.025480917201     -0.001936357971     -0.027417275172
 DF-MP2-F12/3C(FIX)                    -0.025366351676     -0.001945144014     -0.027311495690

 DF-MP2-F12 correlation energies:
 ================================
 Approx.                                    Singlet             Triplet             Ecorr            Total Energy
 DF-MP2                                -0.312111870868     -0.173463900113     -0.485575770981   -535.420128004204
 DF-MP2-F12/3*C(DX,FIX)                -0.336095460154     -0.175226854112     -0.511322314266   -535.445874547489
 DF-MP2-F12/3*C(FIX)                   -0.337592788069     -0.175400258084     -0.512993046153   -535.447545279376
 DF-MP2-F12/3C(FIX)                    -0.337478222544     -0.175409044127     -0.512887266671   -535.447439499894

 SCS-DF-MP2 energies (F_SING= 1.20000  F_TRIP= 0.62222  F_PARALLEL= 0.33333):
 ============================================================================
 SCS-DF-MP2                            -0.482467338445   -535.417019571669
 SCS-DF-MP2-F12/3*C(DX,FIX)            -0.512344594743   -535.446896827966
 SCS-DF-MP2-F12/3*C(FIX)               -0.514249284046   -535.448801517269
 SCS-DF-MP2-F12/3C(FIX)                -0.514117272288   -535.448669505511

 Symmetry restored.
 Symmetry transformation completed.

 Number of N-1 electron functions:               7
 Number of N-2 electron functions:              28
 Number of singly external CSFs:              1008
 Number of doubly external CSFs:            844326
 Total number of CSFs:                      845335

 Length of J-op  integral file:             212.15 MB
 Length of K-op  integral file:             281.93 MB
 Length of 3-ext integral record:             0.00 MB

 Memory could be reduced to 87.50 Mwords without degradation in triples

 Integral transformation finished. Total CPU:  45.05 sec, npass=  1  Memory used:  26.91 MW

 Reference energy:                   -534.93455223

 Adding F12 terms to K(Cij), methodcc=6,  factor= 1.0

 ITER.      SQ.NORM     CORR.ENERGY   TOTAL ENERGY   ENERGY CHANGE        DEN1      VAR(S)    VAR(P)  DIIS     TIME  TIME/IT
   1      1.13910222    -0.49381798  -535.42837021    -0.00823620     0.00473533  0.19D-02  0.25D-02  1  1   151.44     4.59
   2      1.14863631    -0.49435257  -535.42890481    -0.00053459    -0.01059602  0.46D-04  0.34D-03  2  2   196.88     4.76
   3      1.15229860    -0.49447856  -535.42903079    -0.00012598    -0.00204388  0.27D-04  0.26D-04  3  3   240.50     4.74
   4      1.15400375    -0.49447148  -535.42902371     0.00000708    -0.00089921  0.19D-05  0.30D-05  4  4   284.38     4.73
   5      1.15437770    -0.49447443  -535.42902666    -0.00000295    -0.00007312  0.54D-06  0.30D-06  5  5   328.13     4.73
   6      1.15447779    -0.49447033  -535.42902256     0.00000410    -0.00000663  0.11D-06  0.51D-07  6  6   372.18     4.73
   7      1.15450651    -0.49446933  -535.42902156     0.00000100    -0.00000416  0.27D-07  0.72D-08  6  1   417.78     4.77
   8      1.15451285    -0.49446944  -535.42902167    -0.00000011     0.00000045  0.73D-08  0.17D-08  6  3   462.13     4.77
   9      1.15451686    -0.49446927  -535.42902151     0.00000016    -0.00000102  0.21D-08  0.49D-09  6  2   505.32     4.75

 Norm of t1 vector:      0.05892446      S-energy:     0.00000011      T1 diagnostic:  0.01113568
                                                                       D1 diagnostic:  0.02368109
                                                                       D2 diagnostic:  0.16963519 (external, symmetry=1)

 Adding energy correction from Wij-K(Fij), methodcc=6  factor= 1.0

  CCSD correlation energy              -0.494469273123
  MP2-F12 correction (uncoupled)       -0.026779380928
  C*T doubles correction               -0.000546138078
  f12b correction                       0.005294782371


 Total CPU time for triples:    123.22 sec


 RESULTS
 =======

  Reference energy                   -534.934394720393
  F12 singles correction               -0.000157512831

 F12 singles corrections added to reference energy

  New reference energy               -534.934552233223

  F12a singlet correction              -0.025386850815
  F12a triplet correction              -0.001938668192
  F12a total correction                -0.027325519007

 F12a corrections for ansatz F12/3C(FIX) added to CCSD energy

  CCSD-F12a singlet pair energy        -0.363161625906
  CCSD-F12a triplet pair energy        -0.158633273948
  CCSD-F12a correlation energy         -0.521794792130

  Triples (T) contribution             -0.021910021954
  Total correlation energy             -0.543704814083

  CCSD-F12a total energy             -535.456347025353
  CCSD[T]-F12a energy                -535.478823273789
  CCSD-T-F12a energy                 -535.478015539001
 !CCSD(T)-F12a total energy          -535.478257047307

 F12b corrections for ansatz F12/3C(FIX) added to CCSD(T)-F12a energy

  CCSD-F12b singlet pair energy        -0.358111097902
  CCSD-F12b triplet pair energy        -0.158389019581
  CCSD-F12b correlation energy         -0.516500009759

  Triples (T) contribution             -0.021910021954
  Total correlation energy             -0.538410031712

  CCSD-F12b total energy             -535.451052242982
  CCSD[T]-F12b energy                -535.473528491418
  CCSD-T-F12b energy                 -535.472720756630
 !CCSD(T)-F12b total energy          -535.472962264936

 Timing summary (sec):

 STEP                 CPU(USER)    SYS     CPU(TOT)    WALL
 Transformation         45.43      0.75     46.18      6.16
 CCSD iterations       397.21     12.19    409.40     42.85
 Triples               123.22      1.14    124.36     19.03
 MP2-F12                62.86      0.93     63.79     29.00
 F12b energy            39.62      1.06     40.68      4.23

 Program statistics:

 Available memory in ccsd:               499999654
 Min. memory needed in ccsd:               2702012
 Max. memory used in ccsd:                 3402474
 Max. memory used in cckext:               5507995 (10 integral passes)



 **********************************************************************************************************************************
 DATASETS  * FILE   NREC   LENGTH (MB)   RECORD NAMES
              1      20     1755.99       500      610      700      900      950      970     1000      129      960     1100   
                                          VAR    BASINP    GEOM    SYMINP    ZMAT    AOBASIS   BASIS     P2S    ABASIS      S 
                                         1400     1410     1200     1210     1080     1600     1650     1300     1700     1380   
                                           T        V       H0       H01     AOSYM     SMH    MOLCAS    ERIS     OPER     JKOP   

              2       6        1.49       700     1000      520     2100     7360     7350   
                                         GEOM     BASIS   MCVARS     RHF    F12ABS    EF12   

 PROGRAMS   *        TOTAL   CCSD(T)    HF-SCF       INT
 CPU TIMES  *      1011.32    668.37    176.44    166.40
 REAL TIME  *       171.35 SEC
 DISK USED  *         5.57 GB
 **********************************************************************************************************************************
 SETTING E_PVQZ         =      -535.47296226  AU                              
 SETTING BASIS          =    AUG-CC-PCVQZ-F12


 Recomputing integrals since basis changed


 Using spherical harmonics

 Library entry O      S cc-pCVQZ-F12         selected for orbital group  1
 Library entry O      P cc-pCVQZ-F12         selected for orbital group  1
 Library entry O      D cc-pCVQZ-F12         selected for orbital group  1
 Library entry O      D vqz-f12-diff         selected for orbital group  1
 Library entry O      F cc-pCVQZ-F12         selected for orbital group  1
 Library entry O      F vqz-f12-diff         selected for orbital group  1
 Library entry O      G cc-pCVQZ-F12         selected for orbital group  1
 Library entry O      G vqz-f12-diff         selected for orbital group  1
 Library entry H      S cc-pVQZ-F12          selected for orbital group  2
 Library entry H      P cc-pVQZ-F12          selected for orbital group  2
 Library entry H      P vqz-f12-diff         selected for orbital group  2
 Library entry H      D cc-pVQZ-F12          selected for orbital group  2
 Library entry H      D vqz-f12-diff         selected for orbital group  2
 Library entry H      F cc-pVQZ-F12          selected for orbital group  2
 Library entry H      F vqz-f12-diff         selected for orbital group  2
 Library entry CL     S cc-pCVQZ-F12         selected for orbital group  3
 Library entry CL     P cc-pCVQZ-F12         selected for orbital group  3
 Library entry CL     D cc-pCVQZ-F12         selected for orbital group  3
 Library entry CL     D vqz-f12-diff         selected for orbital group  3
 Library entry CL     F cc-pCVQZ-F12         selected for orbital group  3
 Library entry CL     F vqz-f12-diff         selected for orbital group  3
 Library entry CL     G cc-pCVQZ-F12         selected for orbital group  3
 Library entry CL     G vqz-f12-diff         selected for orbital group  3


 PROGRAM * SEWARD (Integral evaluation for generally contracted gaussian basis sets)     Author: Roland Lindh, 1990

 Geometry written to block  1 of record 700

 Orientation using atomic masses  
 Molecule type: Asymmetric top
 Symmetry elements: X
 Rotational constants:      14.7760974     15.1401499    614.5055928 GHz  (calculated with average atomic masses)

 Point group  Cs  



 ATOMIC COORDINATES

 NR  ATOM    CHARGE       X              Y              Z

   1  O       8.00    0.000000000    0.118821474   -2.145960667
   2  H       1.00    0.000000000   -1.639489684   -2.625647468
   3  CL     17.00    0.000000000   -0.007011115    1.043087417

 Bond lengths in Bohr (Angstrom)

 1-2  1.822568943  1-3  3.191529652
     ( 0.964461950)     ( 1.688884760)

 Bond angles

  2-1-3  103.00000000

 NUCLEAR CHARGE:                   26
 NUMBER OF PRIMITIVE AOS:         429
 NUMBER OF SYMMETRY AOS:          344
 NUMBER OF CONTRACTIONS:          299   (  188A'  +  111A"  )
 NUMBER OF INNER CORE ORBITALS:     1   (    1A'  +    0A"  )
 NUMBER OF OUTER CORE ORBITALS:     5   (    4A'  +    1A"  )
 NUMBER OF VALENCE ORBITALS:        9   (    7A'  +    2A"  )


 NUCLEAR REPULSION ENERGY   51.23575142


 Eigenvalues of metric

         1 0.175E-05 0.176E-05 0.695E-05 0.142E-04 0.168E-04 0.179E-04 0.230E-04 0.471E-04
         2 0.176E-05 0.170E-04 0.188E-03 0.595E-03 0.856E-03 0.212E-02 0.254E-02 0.406E-02


 Contracted 2-electron integrals neglected if value below      1.0D-12
 AO integral compression algorithm  1   Integral accuracy      1.0D-12

     2432.172 MB (compressed) written to integral file ( 47.9%)


 NUMBER OF SORTED TWO-ELECTRON INTEGRALS:  508447065.     BUFFER LENGTH:  32768
 NUMBER OF SEGMENTS:  32  SEGMENT LENGTH:   15999503      RECORD LENGTH: 262144

 Memory used in sort:      16.29 MW

 SORT1 READ   635147888. AND WROTE   452263356. INTEGRALS IN   2606 RECORDS. CPU TIME:     5.34 SEC, REAL TIME:     7.29 SEC
 SORT2 READ   452263356. AND WROTE   508447065. INTEGRALS IN   9278 RECORDS. CPU TIME:     5.06 SEC, REAL TIME:     6.35 SEC

 FILE SIZES:   FILE 1:  2464.6 MBYTE,  FILE 4:  5465.2 MBYTE,   TOTAL:   7929.8 MBYTE

 OPERATOR DM      FOR CENTER  0  COORDINATES:    0.000000    0.000000    0.000000


 **********************************************************************************************************************************
 DATASETS  * FILE   NREC   LENGTH (MB)   RECORD NAMES
              1      19     1926.21       500      610      700      900      950      970     1001      129      960     1100   
                                          VAR    BASINP    GEOM    SYMINP    ZMAT    AOBASIS   BASIS     P2S    ABASIS      S 
                                         1400     1410     1200     1210     1080     1600     1650     1300     1700   
                                           T        V       H0       H01     AOSYM     SMH    MOLCAS    ERIS     OPER   

              2       7        1.55       700     1000      520     2100     7360     7350     1001   
                                         GEOM     BASIS   MCVARS     RHF    F12ABS    EF12     BASIS   

 PROGRAMS   *        TOTAL       INT   CCSD(T)    HF-SCF       INT
 CPU TIMES  *      1240.74    229.41    668.37    176.44    166.40
 REAL TIME  *       233.42 SEC
 DISK USED  *         7.39 GB
 **********************************************************************************************************************************


 Program * Restricted Hartree-Fock

 Molecular orbitals read from record     2100.2  Type=RHF/CANONICAL  

 Present basis size:      188  111
 Previous basis size:     172  102
 Previous occupation:      10    3
 Previous closed-shells:   10    3
 Previous core-orbitals:    5    1
 Present occupation:       10    3
 Present closed-shells:    10    3
 Present core-orbitals:     5    1
 Wavefunction symmetry:    1   Singlet 

 Orbital overlap <old|new>:  < 1.1| 1.1> = 1.000000   < 2.1| 2.1> = 1.000000   < 3.1| 3.1> = 1.000000   < 4.1| 4.1> = 1.000000
                             < 5.1| 5.1> = 1.000000   < 1.2| 1.2> = 1.000000   < 6.1| 6.1> = 1.000000   < 7.1| 7.1> = 1.000000
                             < 8.1| 8.1> = 1.000000   < 9.1| 9.1> = 1.000000   <10.1|10.1> = 1.000000   < 2.2| 2.2> = 1.000000
                             < 3.2| 3.2> = 1.000000


 Initial occupancy:  10   3

 NELEC=   26   SYM=1   MS2= 0   THRE=1.0D-08   THRD=3.2D-06   THRG=3.2D-06  HFMA2=F  DIIS_START=2   DIIS_MAX=10   DIIS_INCORE=F

 Level shifts:    0.00 (CLOSED)    0.00 (OPEN)    0.30 (GAP_MIN)

 ITER           ETOT              DE          GRAD        DDIFF     DIIS  NEXP   TIME(IT)  TIME(TOT)  DIAG
   1     -534.93439472    -534.93439472     0.00D+00     0.46D-01     0     0      24.44     24.63    start
   2     -534.93440421      -0.00000949     0.53D-03     0.31D-03     1     0      23.21     47.84    diag
   3     -534.93440421      -0.00000000     0.63D-05     0.71D-05     2     0      23.88     71.72    diag
   4     -534.93440421      -0.00000000     0.23D-06     0.33D-06     3     0      24.48     96.20    diag
   5     -534.93440421      -0.00000000     0.44D-07     0.44D-07     0     0      25.37    121.57    diag

 Final occupancy:  10   3

 !RHF STATE 1.1 Energy               -534.934404211240
  RHF One-electron energy            -840.947113291542
  RHF Two-electron energy             254.776957657066
  RHF Kinetic energy                  534.816243559700
  RHF Nuclear energy                   51.235751423237
  RHF Virial quotient                  -1.000220936916

 !RHF STATE 1.1 Dipole moment           0.00000000    -0.62133373    -0.13457741
 Dipole moment /Debye                   0.00000000    -1.57927281    -0.34206167

 Orbital energies:

           1.1          2.1          3.1          4.1          5.1          6.1          7.1          8.1          9.1         10.1
   -104.889811   -20.640456   -10.610185    -8.077081    -8.074987    -1.413277    -1.061310    -0.722211    -0.605186    -0.468532

          11.1         12.1
      0.038459     0.059857

           1.2          2.2          3.2          4.2          5.2
     -8.074845    -0.614470    -0.444246     0.084169     0.123789


 HOMO      3.2    -0.444246 =     -12.0886eV
 LUMO     11.1     0.038459 =       1.0465eV
 LUMO-HOMO         0.482706 =      13.1351eV

 Orbitals saved in record  2101.2


 **********************************************************************************************************************************
 DATASETS  * FILE   NREC   LENGTH (MB)   RECORD NAMES
              1      19     1926.21       500      610      700      900      950      970     1001      129      960     1100   
                                          VAR    BASINP    GEOM    SYMINP    ZMAT    AOBASIS   BASIS     P2S    ABASIS      S 
                                         1400     1410     1200     1210     1080     1600     1650     1300     1700   
                                           T        V       H0       H01     AOSYM     SMH    MOLCAS    ERIS     OPER   

              2       8        2.38       700     1000      520     2100     7360     7350     1001     2101   
                                         GEOM     BASIS   MCVARS     RHF    F12ABS    EF12     BASIS     RHF  

 PROGRAMS   *        TOTAL    HF-SCF       INT   CCSD(T)    HF-SCF       INT
 CPU TIMES  *      1362.36    121.61    229.41    668.37    176.44    166.40
 REAL TIME  *       250.88 SEC
 DISK USED  *         7.39 GB
 **********************************************************************************************************************************


 PROGRAM * CCSD (Closed-shell coupled cluster)     Authors: C. Hampel, H.-J. Werner, 1991, M. Deegan, P.J. Knowles, 1992

                                  CCSD-F12 implementation by  H.-J. Werner, 2007

                   Density fitting integral evaluation by F.R. Manby, 2003,2007, G. Knizia, 2010



 Convergence thresholds:  THRVAR = 1.00D-08  THRDEN = 1.00D-06

 CCSD(T)     terms to be evaluated (factor= 1.000)


 Number of core orbitals:           1 (   1   0 )
 Number of closed-shell orbitals:  12 (   9   3 )
 Number of external orbitals:     286 ( 178 108 )

 Molecular orbitals read from record     2101.2  Type=RHF/CANONICAL (state 1.1)

 MP2-F12 correlation treatment (H.-J. Werner, 2006)
 ==================================================

 Using MP2-F12 with ansatz 3C(FIX)

 Using projected zeroth-order Hamiltonian (+Z)

 FOCKRIB=T FOCKRIC=T FOCKRIP=T CABSP=T CABSA=T CABSK=T CABSF=T GBC=F EBC=F DMAT=T NOFIK=T NOPAO=1 SOLVE=-1  USEPAO=0
 EXCH_A= T EXCH_B= F EXCH_C= F EXCH_P= F

 Geminal basis:    OPTFULL  GEM_TYPE=SLATER  BETA=1.4  NGEM=6

 Optimizing Gaussian exponents for each gem_beta

 Geminal optimization for beta= 1.4000
 Weight function:   m=0, omega= 1.8329

 Augmented Hessian optimization of geminal fit. Trust ratio= 0.40000
 Convergence reached after   2 iterations. Final gradient= 5.75D-17, Step= 7.43D-07, Delta= 1.11D-09

 Alpha:                 0.32335     1.22090     4.06503    13.28654    49.65231   274.64957
 Coeff:                 0.21345     0.30057     0.20316     0.12774     0.08045     0.05014


 Symmetry turned off. Reference energy:       -534.934404211240

 All pairs explicitly correlated. Number of r12-pairs:           78

 Excluding core orbitals from MO domains

 AO(A)-basis ORBITAL           loaded. Number of functions:     299
 RI(R)-basis V5Z/JKFIT         loaded. Number of functions:     410
 DF-basis VQZ-F12/JKFIT        loaded. Number of functions:     402

 Screening thresholds:   THRAO=  1.00D-10  THRMO=  1.00D-09  THRPROD=  1.00D-09
                         THRSW=  1.00D-05  THROV=  1.00D-12  THRAOF12= 1.00D-08

 CPU time for Fock operators                     13.93 sec

 Construction of ABS:
 Smallest eigenvalue of S          9.06E-05  (threshold= 1.00E-08)
 Ratio eigmin/eigmax               1.54E-05  (threshold= 1.00E-09)
 Smallest eigenvalue of S kept     9.06E-05  (threshold= 9.06E-05, 0 functions deleted, 410 kept)

 Construction of CABS:
 Smallest eigenvalue of S          2.16E-09  (threshold= 1.00E-08)
 Ratio eigmin/eigmax               2.16E-09  (threshold= 1.00E-09)
 Smallest eigenvalue of S kept     1.38E-08  (threshold= 1.38E-08, 2 functions deleted, 408 kept)

 CPU time for CABS singles                        0.28 sec

 CABS-singles contribution of  -0.00018067 patched into reference energy.
 New reference energy        -534.93458488

 AO(A)-basis ORBITAL           loaded. Number of functions:     299
 RI(R)-basis V5Z/JKFIT         loaded. Number of functions:     410
 DF-basis AUG-CC-PWCV5Z/MP2FIT loaded. Number of functions:     866

 Screening thresholds:   THRAO=  1.00D-10  THRMO=  1.00D-09  THRPROD=  1.00D-09
                         THRSW=  1.00D-05  THROV=  1.00D-12  THRAOF12= 1.00D-08

 CPU time for 3-index integral evaluation        34.61 sec
 CPU time for first  half transformation          6.55 sec ( 3540.1 MFLOP/sec)
 CPU time for second half transformation          0.69 sec (  818.8 MFLOP/sec)
 CPU time for sorting                             0.16 sec
 CPU time for fitting                             0.77 sec (17484.7 MFLOP/sec)
 CPU time for tilde quantities                    1.00 sec (18610.9 MFLOP/sec)
 CPU time for assembly                            6.99 sec (24112.6 MFLOP/sec)
 CPU time for tranop_f12                         11.97 sec (12701.7 MFLOP/sec)
 CPU time for f12 integrals (total)              77.44 sec, Elapsed time:     22.55 sec
 CPU time for f12 matrices (total)                3.86 sec, Elapsed time:      0.57 sec

 Diagonal F12 approximation with fixed coefficients:  TSING= 0.500,  TTRIP= 0.250 (scaled by -1/beta)

 DF-MP2-F12 energy corrections:
 ==============================
 Approx.                                    Singlet             Triplet             Total
 DF-MP2-F12/3*C(DX,FIX)                -0.071400957142     -0.008138821186     -0.079539778328
 DF-MP2-F12/3*C(FIX)                   -0.068155816095     -0.007650497318     -0.075806313413
 DF-MP2-F12/3C(FIX)                    -0.068877400403     -0.008360337021     -0.077237737424

 DF-MP2-F12 correlation energies:
 ================================
 Approx.                                    Singlet             Triplet             Ecorr            Total Energy
 DF-MP2                                -0.540035369732     -0.319298266257     -0.859333635989   -535.793918520260
 DF-MP2-F12/3*C(DX,FIX)                -0.611436326874     -0.327437087443     -0.938873414317   -535.873458298588
 DF-MP2-F12/3*C(FIX)                   -0.608191185827     -0.326948763575     -0.935139949402   -535.869724833673
 DF-MP2-F12/3C(FIX)                    -0.608912770135     -0.327658603278     -0.936571373413   -535.871156257684

 SCS-DF-MP2 energies (F_SING= 1.20000  F_TRIP= 0.62222  F_PARALLEL= 0.33333):
 ============================================================================
 SCS-DF-MP2                            -0.846716920461   -535.781301804732
 SCS-DF-MP2-F12/3*C(DX,FIX)            -0.937462224436   -535.872047108707
 SCS-DF-MP2-F12/3*C(FIX)               -0.933264209217   -535.867849093488
 SCS-DF-MP2-F12/3C(FIX)                -0.934571788424   -535.869156672695

 Symmetry restored.
 Symmetry transformation completed.

 Number of N-1 electron functions:              12
 Number of N-2 electron functions:              78
 Number of singly external CSFs:              1926
 Number of doubly external CSFs:           2990472
 Total number of CSFs:                     2992399

 Length of J-op  integral file:             670.78 MB
 Length of K-op  integral file:             791.55 MB
 Length of 3-ext integral record:             0.00 MB

 Memory could be reduced to 178.44 Mwords without degradation in triples

 Integral transformation finished. Total CPU:  87.82 sec, npass=  1  Memory used:  56.43 MW

 Reference energy:                   -534.93458488

 Adding F12 terms to K(Cij), methodcc=6,  factor= 1.0

 ITER.      SQ.NORM     CORR.ENERGY   TOTAL ENERGY   ENERGY CHANGE        DEN1      VAR(S)    VAR(P)  DIIS     TIME  TIME/IT
   1      1.14516781    -0.86882412  -535.80340900    -0.00948328     0.00653029  0.22D-02  0.25D-02  0  0   269.08     8.95
   2      1.15466853    -0.86747422  -535.80205911     0.00134990    -0.01202219  0.42D-04  0.34D-03  1  1   354.91     9.15
   3      1.15730661    -0.86752657  -535.80211145    -0.00005235    -0.00114229  0.43D-04  0.36D-04  2  2   441.82     9.27
   4      1.15941800    -0.86744886  -535.80203375     0.00007771    -0.00136505  0.24D-05  0.34D-05  3  3   528.48     9.32
   5      1.15985751    -0.86745668  -535.80204156    -0.00000782    -0.00010775  0.66D-06  0.32D-06  4  4   616.54     9.39
   6      1.15996670    -0.86745545  -535.80204033     0.00000123    -0.00000101  0.12D-06  0.50D-07  5  5   703.20     9.40
   7      1.15999753    -0.86745387  -535.80203876     0.00000157    -0.00000391  0.34D-07  0.74D-08  6  6   789.79     9.41
   8      1.16000439    -0.86745369  -535.80203857     0.00000019     0.00000054  0.81D-08  0.18D-08  6  2   877.88     9.44
   9      1.16000923    -0.86745334  -535.80203823     0.00000034    -0.00000177  0.23D-08  0.55D-09  6  1   964.86     9.45

 Norm of t1 vector:      0.06184625      S-energy:     0.00000032      T1 diagnostic:  0.00892674
                                                                       D1 diagnostic:  0.02470957
                                                                       D2 diagnostic:  0.16752780 (internal)

 Adding energy correction from Wij-K(Fij), methodcc=6  factor= 1.0

  CCSD correlation energy              -0.867453344049
  MP2-F12 correction (uncoupled)       -0.067587633560
  C*T doubles correction               -0.005948323924
  f12b correction                       0.007495810855


 Total CPU time for triples:    646.43 sec


 RESULTS
 =======

  Reference energy                   -534.934404211240
  F12 singles correction               -0.000180673031

 F12 singles corrections added to reference energy

  New reference energy               -534.934584884271

  F12a singlet correction              -0.066224720495
  F12a triplet correction              -0.007311236989
  F12a total correction                -0.073535957484

 F12a corrections for ansatz F12/3C(FIX) added to CCSD energy


  Correlated core orbitals:             2.1       3.1       4.1       5.1       1.2
  Orbital energies:                   -20.6405  -10.6102   -8.0771   -8.0750   -8.0748

  CCSD core-core energy                -0.295339898792
  CCSD-F12a core-core energy           -0.335433593163

  CCSD core-valence energy             -0.082303790912
  CCSD-F12a core-valence energy        -0.088673245370

  CCSD valence correlation energy      -0.489809654345
  CCSD-F12a valence correlation en.    -0.516882463000

  CCSD-F12a singlet pair energy        -0.635521613585
  CCSD-F12a triplet pair energy        -0.305468011011
  CCSD-F12a correlation energy         -0.940989301533

  Triples (T) contribution             -0.025316842705
  Total correlation energy             -0.966306144237

  CCSD-F12a total energy             -535.875574185804
  CCSD[T]-F12a energy                -535.901566448140
  CCSD-T-F12a energy                 -535.900631170200
 !CCSD(T)-F12a total energy          -535.900891028509

 F12b corrections for ansatz F12/3C(FIX) added to CCSD(T)-F12a energy


  Correlated core orbitals:             2.1       3.1       4.1       5.1       1.2
  Orbital energies:                   -20.6405  -10.6102   -8.0771   -8.0750   -8.0748

  CCSD core-core energy                -0.295339898792
  CCSD-F12b core-core energy           -0.333426117507

  CCSD core-valence energy             -0.082303790912
  CCSD-F12b core-valence energy        -0.088349790937

  CCSD valence correlation energy      -0.489809654345
  CCSD-F12b valence correlation en.    -0.511717582234

  CCSD-F12b singlet pair energy        -0.628496254515
  CCSD-F12b triplet pair energy        -0.304997559226
  CCSD-F12b correlation energy         -0.933493490678

  Triples (T) contribution             -0.025316842705
  Total correlation energy             -0.958810333383

  CCSD-F12b total energy             -535.868078374949
  CCSD[T]-F12b energy                -535.894070637285
  CCSD-T-F12b energy                 -535.893135359345
 !CCSD(T)-F12b total energy          -535.893395217654

 Timing summary (sec):

 STEP                 CPU(USER)    SYS     CPU(TOT)    WALL
 Transformation         88.89      1.44     90.33     11.79
 CCSD iterations       779.95     20.99    800.94     85.19
 Triples               646.43      7.22    653.65    107.25
 MP2-F12                96.71      2.32     99.03     34.13
 F12b energy            65.39      1.25     66.64      7.00

 Program statistics:

 Available memory in ccsd:               499999014
 Min. memory needed in ccsd:               7761015
 Max. memory used in ccsd:                10457592
 Max. memory used in cckext:              11459864 (10 integral passes)



 **********************************************************************************************************************************
 DATASETS  * FILE   NREC   LENGTH (MB)   RECORD NAMES
              1      20     2509.20       500      610      700      900      950      970     1001      129      960     1100   
                                          VAR    BASINP    GEOM    SYMINP    ZMAT    AOBASIS   BASIS     P2S    ABASIS      S 
                                         1400     1410     1200     1210     1080     1600     1650     1300     1700     1380   
                                           T        V       H0       H01     AOSYM     SMH    MOLCAS    ERIS     OPER     JKOP   

              2       9        2.93       700     1000      520     2100     7360     7350     1001     2101     7360(1)
                                         GEOM     BASIS   MCVARS     RHF    F12ABS    EF12     BASIS     RHF    F12ABS    

 PROGRAMS   *        TOTAL   CCSD(T)    HF-SCF       INT   CCSD(T)    HF-SCF       INT
 CPU TIMES  *      3039.77   1677.40    121.61    229.41    668.37    176.44    166.40
 REAL TIME  *       496.46 SEC
 DISK USED  *         7.39 GB
 **********************************************************************************************************************************
 SETTING E_PCVQZ        =      -535.89339522  AU                              
 SETTING E_CV           =        -0.42043295  AU                              
 SETTING XXX            =    "MMM"
 SETTING POINT          =         1.00000000                                  

 *** ### HOCl


 XXX       ROH          ROCL           ALPHA         E_CV               POINT
 "MMM"   0.96446195   1.68888476   103.00000000   -0.42043295271822   1.000000000000
                                                  

 CCSD(T)-F12/aug-cc-pCVQZ-F12 energy=   -535.893395217654

     CCSD(T)-F12          HF-SCF     CCSD(T)-F12          HF-SCF
   -535.89339522   -534.93440421   -535.47296226   -534.93439472
 **********************************************************************************************************************************
 Molpro calculation terminated
