
 Working directory              : /tmp/asmola/molpro.zfwvcZYwZ2/
 Global scratch directory       : /tmp/asmola/molpro.zfwvcZYwZ2/
 Wavefunction directory         : /home/asmola/wfu/
 Main file repository           : /tmp/asmola/molpro.zfwvcZYwZ2/

 id        : uclcc

 Nodes                        nprocs
 vincent.theory.phys.ucl.ac.uk    1
 GA implementation: MPI file
 GA implementation (serial work in mppx): MPI file

 Using customized tuning parameters: mindgm=1; mindgv=20; mindgc=4; mindgr=1; noblas=0; minvec=7
 default implementation of scratch files=df  


 Variables initialized (1015), CPU time= 0.01 sec
 ***,HOCl CV correction
 memory,500,m;
 
  gthresh,energy=1.d-12,zero=1.d-14,thrint=1.d-14,oneint=1.d-14,twoint=1.d-14,prefac=1.d-20
 
  geometry={angstrom
  o
  h , 1, roh
  cl , 1, rocl, 2, alpha
  }
 
  roh = 0.95247282
  rocl = 2.09109028
  alpha = 88.01636030
 
 basis=aug-cc-pVQZ-f12
 hf
 {ccsd(t)-f12,ri_basis=cc-pV5Z/jkfit,df_basis=aug-cc-pwCV5Z/mp2fit,gem_beta=1.4}
 
 E_pVQZ = ENERGY(2)
 
 basis=aug-cc-pCVQZ-f12
 hf
 {ccsd(t)-f12,ri_basis=cc-pV5Z/jkfit,df_basis=aug-cc-pwCV5Z/mp2fit,gem_beta=1.4}
 
 E_pCVQZ = ENERGY(2)
 
 E_CV = E_pCVQZ - E_pVQZ
 
                                                                                 ! Output the energy
 xxx = "mmm"
 point = 1
 text ### HOCl
 table,xxx,roh,rocl,alpha,E_CV,point
 DIGITS, 0, 8, 8, 8, 14, 12, 4
 Commands initialized (818), CPU time= 0.01 sec, 672 directives.
 Default parameters read. Elapsed time= 0.05 sec

 Checking input...
 Passed
1


                                         ***  PROGRAM SYSTEM MOLPRO  ***
                                       Copyright, TTI GmbH Stuttgart, 2015
                                    Version 2022.1 linked Mar  3 2022 23:20:00


 **********************************************************************************************************************************
 LABEL *   HOCl CV correction                                                            
  (12 PROC) 64 bit serial version                                                        DATE: 28-Jul-25          TIME: 10:36:21  
 **********************************************************************************************************************************

 SHA1:             31073afc4d8441e10870424e0d77336a33bc4286
 **********************************************************************************************************************************

 Memory per process:       500 MW
 Total memory per node:    500 MW

 GA preallocation disabled
 GA check disabled

 Variable memory set to 500.0 MW


 THRESHOLDS:

 ZERO    =  1.00D-14  ONEINT  =  1.00D-14  TWOINT  =  1.00D-14  PREFAC  =  1.00D-20  XXXXXX  =  1.00D-09  EORDER  =  1.00D-04
 ENERGY  =  1.00D-12  ETEST   =  0.00D+00  EDENS   =  0.00D+00  THRDEDEF=  1.00D-06  GRADIENT=  1.00D-05  STEP    =  1.00D-03
 ORBITAL =  1.00D-05  CIVEC   =  1.00D-05  COEFF   =  1.00D-04  PRINTCI =  5.00D-02  PUNCHCI =  9.90D+01  OPTGRAD =  3.00D-04
 OPTENERG=  1.00D-06  OPTSTEP =  3.00D-04  THRGRAD =  1.00D-10  COMPRESS=  1.00D-11  VARMIN  =  1.00D-07  VARMAX  =  1.00D-03
 THRDOUB =  0.00D+00  THRDIV  =  1.00D-05  THRRED  =  1.00D-07  THRPSP  =  1.00D+00  THRDC   =  1.00D-10  THRCS   =  1.00D-10
 THRNRM  =  1.00D-08  THREQ   =  0.00D+00  THRDE   =  1.00D+00  THRREF  =  1.00D-05  SPARFAC =  1.00D+00  THRDLP  =  1.00D-07
 THRDIA  =  1.00D-10  THRDLS  =  1.00D-07  THRGPS  =  0.00D+00  THRKEX  =  0.00D+00  THRDIS  =  2.00D-01  THRVAR  =  1.00D-10
 THRLOC  =  1.00D-06  THRGAP  =  1.00D-06  THRLOCT = -1.00D+00  THRGAPT = -1.00D+00  THRORB  =  1.00D-06  THRMLTP =  0.00D+00
 THRCPQCI=  1.00D-10  KEXTA   =  0.00D+00  THRCOARS=  0.00D+00  SYMTOL  =  1.00D-06  GRADTOL =  1.00D-06  THROVL  =  1.00D-08
 THRORTH =  1.00D-08  THRDLOVL= -1.00D+00  GRID    =  1.00D-06  GRIDMAX =  1.00D-03  DTMAX   =  0.00D+00  THROCCDE=  1.00D-01
 THROCCDE=  1.00D-01  THRPRINT=  2.50D-01

 SETTING ROH            =         0.95247282                                  
 SETTING ROCL           =         2.09109028                                  
 SETTING ALPHA          =        88.01636030                                  
 SETTING BASIS          =    AUG-CC-PVQZ-F12


 Recomputing integrals since basis changed


 Using spherical harmonics

 Library entry O      S cc-pVQZ-F12          selected for orbital group  1
 Library entry O      P cc-pVQZ-F12          selected for orbital group  1
 Library entry O      D cc-pVQZ-F12          selected for orbital group  1
 Library entry O      D vqz-f12-diff         selected for orbital group  1
 Library entry O      F cc-pVQZ-F12          selected for orbital group  1
 Library entry O      F vqz-f12-diff         selected for orbital group  1
 Library entry O      G cc-pVQZ-F12          selected for orbital group  1
 Library entry O      G vqz-f12-diff         selected for orbital group  1
 Library entry H      S cc-pVQZ-F12          selected for orbital group  2
 Library entry H      P cc-pVQZ-F12          selected for orbital group  2
 Library entry H      P vqz-f12-diff         selected for orbital group  2
 Library entry H      D cc-pVQZ-F12          selected for orbital group  2
 Library entry H      D vqz-f12-diff         selected for orbital group  2
 Library entry H      F cc-pVQZ-F12          selected for orbital group  2
 Library entry H      F vqz-f12-diff         selected for orbital group  2
 Library entry CL     S cc-pVQZ-F12          selected for orbital group  3
 Library entry CL     P cc-pVQZ-F12          selected for orbital group  3
 Library entry CL     D cc-pVQZ-F12          selected for orbital group  3
 Library entry CL     D vqz-f12-diff         selected for orbital group  3
 Library entry CL     F cc-pVQZ-F12          selected for orbital group  3
 Library entry CL     F vqz-f12-diff         selected for orbital group  3
 Library entry CL     G cc-pVQZ-F12          selected for orbital group  3
 Library entry CL     G vqz-f12-diff         selected for orbital group  3


 PROGRAM * SEWARD (Integral evaluation for generally contracted gaussian basis sets)     Author: Roland Lindh, 1990

 Geometry written to block  1 of record 700

 Orientation using atomic masses  
 Molecule type: Asymmetric top
 Symmetry elements: X
 Rotational constants:       9.8976002     10.0671911    587.5376563 GHz  (calculated with average atomic masses)

 Point group  Cs  



 ATOMIC COORDINATES

 NR  ATOM    CHARGE       X              Y              Z

   1  O       8.00    0.000000000    0.106313882   -2.669810556
   2  H       1.00    0.000000000   -1.693544741   -2.655849157
   3  CL     17.00    0.000000000    0.000170174    1.280351553

 Bond lengths in Bohr (Angstrom)

 1-2  1.799912771  1-3  3.951587931
     ( 0.952472820)     ( 2.091090280)

 Bond angles

  2-1-3   88.01636030

 NUCLEAR CHARGE:                   26
 NUMBER OF PRIMITIVE AOS:         399
 NUMBER OF SYMMETRY AOS:          319
 NUMBER OF CONTRACTIONS:          274   (  172A'  +  102A"  )
 NUMBER OF INNER CORE ORBITALS:     1   (    1A'  +    0A"  )
 NUMBER OF OUTER CORE ORBITALS:     5   (    4A'  +    1A"  )
 NUMBER OF VALENCE ORBITALS:        9   (    7A'  +    2A"  )


 NUCLEAR REPULSION ENERGY   42.82841062


 Eigenvalues of metric

         1 0.285E-05 0.293E-05 0.153E-04 0.277E-04 0.979E-04 0.111E-03 0.131E-03 0.177E-03
         2 0.294E-05 0.193E-03 0.466E-03 0.835E-03 0.147E-02 0.245E-02 0.372E-02 0.511E-02


 Contracted 2-electron integrals neglected if value below      1.0D-14
 AO integral compression algorithm  1   Integral accuracy      1.0D-14

     2509.505 MB (compressed) written to integral file ( 70.4%)


 NUMBER OF SORTED TWO-ELECTRON INTEGRALS:  358946914.     BUFFER LENGTH:  32768
 NUMBER OF SEGMENTS:  23  SEGMENT LENGTH:   15999503      RECORD LENGTH: 524288

 Memory used in sort:      16.56 MW

 SORT1 READ   445837897. AND WROTE   332772320. INTEGRALS IN    964 RECORDS. CPU TIME:     3.86 SEC, REAL TIME:     5.27 SEC
 SORT2 READ   332772320. AND WROTE   358946914. INTEGRALS IN   9573 RECORDS. CPU TIME:     3.59 SEC, REAL TIME:     4.69 SEC

 FILE SIZES:   FILE 1:  2541.5 MBYTE,  FILE 4:  4043.3 MBYTE,   TOTAL:   6584.8 MBYTE

 OPERATOR DM      FOR CENTER  0  COORDINATES:    0.000000    0.000000    0.000000


 **********************************************************************************************************************************
 DATASETS  * FILE   NREC   LENGTH (MB)   RECORD NAMES
              1      19     1999.62       500      610      700      900      950      970     1000      129      960     1100   
                                          VAR    BASINP    GEOM    SYMINP    ZMAT    AOBASIS   BASIS     P2S    ABASIS      S 
                                         1400     1410     1200     1210     1080     1600     1650     1300     1700   
                                           T        V       H0       H01     AOSYM     SMH    MOLCAS    ERIS     OPER   

 PROGRAMS   *        TOTAL       INT
 CPU TIMES  *       170.19    170.07
 REAL TIME  *        44.35 SEC
 DISK USED  *         6.13 GB
 **********************************************************************************************************************************


 Program * Restricted Hartree-Fock

 Orbital guess generated from atomic densities. Full valence occupancy:   12   3

 Initial occupancy:  10   3

 NELEC=   26   SYM=1   MS2= 0   THRE=1.0D-12   THRD=1.0D-06   THRG=1.0D-06  HFMA2=F  DIIS_START=2   DIIS_MAX=10   DIIS_INCORE=F

 Level shifts:    0.00 (CLOSED)    0.00 (OPEN)    0.30 (GAP_MIN)

 ITER           ETOT              DE          GRAD        DDIFF     DIIS  NEXP   TIME(IT)  TIME(TOT)  DIAG
   1     -534.85336751    -534.85336751     0.00D+00     0.50D-01     0     0      17.32     34.56    start
   2     -534.87265929      -0.01929179     0.36D-02     0.30D-02     1     0      17.52     52.08    diag
   3     -534.87573037      -0.00307108     0.16D-02     0.12D-02     2     0      16.51     68.59    diag
   4     -534.87660387      -0.00087349     0.72D-03     0.51D-03     3     0      17.47     86.06    diag
   5     -534.87670465      -0.00010079     0.22D-03     0.15D-03     4     0      17.03    103.09    diag
   6     -534.87671809      -0.00001343     0.51D-04     0.62D-04     5     0      17.57    120.66    diag
   7     -534.87672235      -0.00000427     0.26D-04     0.44D-04     6     0      17.15    137.81    diag
   8     -534.87672295      -0.00000060     0.87D-05     0.19D-04     7     0      16.44    154.25    fixocc
   9     -534.87672300      -0.00000004     0.22D-05     0.36D-05     8     0      16.42    170.67    diag
  10     -534.87672301      -0.00000001     0.10D-05     0.22D-05     9     0      16.63    187.30    diag/orth
  11     -534.87672302      -0.00000001     0.56D-06     0.18D-05     9     0      17.12    204.42    diag
  12     -534.87672302      -0.00000000     0.17D-06     0.57D-06     9     0      16.71    221.13    diag
  13     -534.87672302      -0.00000000     0.32D-07     0.65D-07     9     0      17.13    238.26    diag
  14     -534.87672302      -0.00000000     0.11D-07     0.15D-07     9     0      17.14    255.40    diag
  15     -534.87672302       0.00000000     0.48D-08     0.51D-08     0     0      17.48    272.88    diag

 Final occupancy:  10   3

 !RHF STATE 1.1 Energy               -534.876723017121
  RHF One-electron energy            -824.076129156758
  RHF Two-electron energy             246.370995519885
  RHF Kinetic energy                  534.499471112581
  RHF Nuclear energy                   42.828410619752
  RHF Virial quotient                  -1.000705804075

 !RHF STATE 1.1 Dipole moment           0.00000000    -0.62767293    -0.09385741
 Dipole moment /Debye                   0.00000000    -1.59538546    -0.23856173

 Orbital energies:

           1.1          2.1          3.1          4.1          5.1          6.1          7.1          8.1          9.1         10.1
   -104.896726   -20.681834   -10.615441    -8.081721    -8.080018    -1.368058    -1.072877    -0.709018    -0.524425    -0.486980

          11.1         12.1
     -0.028247     0.048922

           1.2          2.2          3.2          4.2          5.2
     -8.079974    -0.590354    -0.479642     0.087232     0.123160


 HOMO      3.2    -0.479642 =     -13.0517eV
 LUMO     11.1    -0.028247 =      -0.7687eV
 LUMO-HOMO         0.451395 =      12.2831eV

 Orbitals saved in record  2100.2


 **********************************************************************************************************************************
 DATASETS  * FILE   NREC   LENGTH (MB)   RECORD NAMES
              1      19     1999.62       500      610      700      900      950      970     1000      129      960     1100   
                                          VAR    BASINP    GEOM    SYMINP    ZMAT    AOBASIS   BASIS     P2S    ABASIS      S 
                                         1400     1410     1200     1210     1080     1600     1650     1300     1700   
                                           T        V       H0       H01     AOSYM     SMH    MOLCAS    ERIS     OPER   

              2       4        1.02       700     1000      520     2100   
                                         GEOM     BASIS   MCVARS     RHF  

 PROGRAMS   *        TOTAL    HF-SCF       INT
 CPU TIMES  *       443.09    272.90    170.07
 REAL TIME  *        85.07 SEC
 DISK USED  *         6.13 GB
 **********************************************************************************************************************************


 PROGRAM * CCSD (Closed-shell coupled cluster)     Authors: C. Hampel, H.-J. Werner, 1991, M. Deegan, P.J. Knowles, 1992

                                  CCSD-F12 implementation by  H.-J. Werner, 2007

                   Density fitting integral evaluation by F.R. Manby, 2003,2007, G. Knizia, 2010


 Basis set VQZ-F12/JKFIT generated.      Number of basis functions:   402 
 Basis set V5Z/JKFIT generated.          Number of basis functions:   410 
 Basis set AUG-CC-PWCV5Z/MP2FIT generated. Number of basis functions:   866 

 Convergence thresholds:  THRVAR = 1.00D-08  THRDEN = 1.00D-12

 CCSD(T)     terms to be evaluated (factor= 1.000)


 Number of core orbitals:           6 (   5   1 )
 Number of closed-shell orbitals:   7 (   5   2 )
 Number of external orbitals:     261 ( 162  99 )

 Molecular orbitals read from record     2100.2  Type=RHF/CANONICAL  

 MP2-F12 correlation treatment (H.-J. Werner, 2006)
 ==================================================

 Using MP2-F12 with ansatz 3C(FIX)

 Using projected zeroth-order Hamiltonian (+Z)

 FOCKRIB=T FOCKRIC=T FOCKRIP=T CABSP=T CABSA=T CABSK=T CABSF=T GBC=F EBC=F DMAT=T NOFIK=T NOPAO=1 SOLVE=-1  USEPAO=0
 EXCH_A= T EXCH_B= F EXCH_C= F EXCH_P= F

 Geminal basis:    OPTFULL  GEM_TYPE=SLATER  BETA=1.4  NGEM=6

 Optimizing Gaussian exponents for each gem_beta

 Geminal optimization for beta= 1.4000
 Weight function:   m=0, omega= 1.8329

 Augmented Hessian optimization of geminal fit. Trust ratio= 0.40000
 Convergence reached after   2 iterations. Final gradient= 5.75D-17, Step= 7.43D-07, Delta= 1.11D-09

 Alpha:                 0.32335     1.22090     4.06503    13.28654    49.65231   274.64957
 Coeff:                 0.21345     0.30057     0.20316     0.12774     0.08045     0.05014


 Symmetry turned off. Reference energy:       -534.876723017121

 All pairs explicitly correlated. Number of r12-pairs:           28

 Excluding core orbitals from MO domains

 AO(A)-basis ORBITAL           loaded. Number of functions:     274
 RI(R)-basis V5Z/JKFIT         loaded. Number of functions:     410
 DF-basis VQZ-F12/JKFIT        loaded. Number of functions:     402

 Screening thresholds:   THRAO=  1.00D-10  THRMO=  1.00D-09  THRPROD=  1.00D-09
                         THRSW=  1.00D-05  THROV=  1.00D-12  THRAOF12= 1.00D-08

 CPU time for Fock operators                     13.04 sec

 Construction of ABS:
 Smallest eigenvalue of S          9.02E-05  (threshold= 1.00E-08)
 Ratio eigmin/eigmax               1.62E-05  (threshold= 1.00E-09)
 Smallest eigenvalue of S kept     9.02E-05  (threshold= 9.02E-05, 0 functions deleted, 410 kept)

 Construction of CABS:
 Smallest eigenvalue of S          2.98E-09  (threshold= 1.00E-08)
 Ratio eigmin/eigmax               2.98E-09  (threshold= 1.00E-09)
 Smallest eigenvalue of S kept     2.36E-08  (threshold= 2.36E-08, 2 functions deleted, 408 kept)

 CPU time for CABS singles                        0.26 sec

 CABS-singles contribution of  -0.00011340 patched into reference energy.
 New reference energy        -534.87683641

 AO(A)-basis ORBITAL           loaded. Number of functions:     274
 RI(R)-basis V5Z/JKFIT         loaded. Number of functions:     410
 DF-basis AUG-CC-PWCV5Z/MP2FIT loaded. Number of functions:     866

 Screening thresholds:   THRAO=  1.00D-10  THRMO=  1.00D-09  THRPROD=  1.00D-09
                         THRSW=  1.00D-05  THROV=  1.00D-12  THRAOF12= 1.00D-08

 CPU time for 3-index integral evaluation        29.01 sec
 CPU time for first  half transformation          4.50 sec ( 2626.6 MFLOP/sec)
 CPU time for second half transformation          0.33 sec (  916.0 MFLOP/sec)
 CPU time for sorting                             0.10 sec
 CPU time for fitting                             0.41 sec (18514.8 MFLOP/sec)
 CPU time for tilde quantities                    0.57 sec (18125.3 MFLOP/sec)
 CPU time for assembly                            2.20 sec (24599.7 MFLOP/sec)
 CPU time for tranop_f12                          3.62 sec (12473.1 MFLOP/sec)
 CPU time for f12 integrals (total)              49.92 sec, Elapsed time:     18.84 sec
 CPU time for f12 matrices (total)                0.97 sec, Elapsed time:      0.14 sec

 Diagonal F12 approximation with fixed coefficients:  TSING= 0.500,  TTRIP= 0.250 (scaled by -1/beta)

 DF-MP2-F12 energy corrections:
 ==============================
 Approx.                                    Singlet             Triplet             Total
 DF-MP2-F12/3*C(DX,FIX)                -0.023368850306     -0.001612565300     -0.024981415605
 DF-MP2-F12/3*C(FIX)                   -0.024963672287     -0.001775615074     -0.026739287361
 DF-MP2-F12/3C(FIX)                    -0.024825770572     -0.001778039326     -0.026603809897

 DF-MP2-F12 correlation energies:
 ================================
 Approx.                                    Singlet             Triplet             Ecorr            Total Energy
 DF-MP2                                -0.328540160022     -0.174365012820     -0.502905172842   -535.379741586602
 DF-MP2-F12/3*C(DX,FIX)                -0.351909010328     -0.175977578120     -0.527886588447   -535.404723002207
 DF-MP2-F12/3*C(FIX)                   -0.353503832309     -0.176140627894     -0.529644460204   -535.406480873963
 DF-MP2-F12/3C(FIX)                    -0.353365930594     -0.176143052145     -0.529508982740   -535.406345396499

 SCS-DF-MP2 energies (F_SING= 1.20000  F_TRIP= 0.62222  F_PARALLEL= 0.33333):
 ============================================================================
 SCS-DF-MP2                            -0.502741977781   -535.379578391541
 SCS-DF-MP2-F12/3*C(DX,FIX)            -0.531787972112   -535.408624385872
 SCS-DF-MP2-F12/3*C(FIX)               -0.533803211683   -535.410639625443
 SCS-DF-MP2-F12/3C(FIX)                -0.533639238048   -535.410475651807

 Symmetry restored.
 Symmetry transformation completed.

 Number of N-1 electron functions:               7
 Number of N-2 electron functions:              28
 Number of singly external CSFs:              1008
 Number of doubly external CSFs:            844326
 Total number of CSFs:                      845335

 Length of J-op  integral file:             212.15 MB
 Length of K-op  integral file:             281.93 MB
 Length of 3-ext integral record:             0.00 MB

 Memory could be reduced to 87.50 Mwords without degradation in triples

 Integral transformation finished. Total CPU:  48.67 sec, npass=  1  Memory used:  26.91 MW

 Reference energy:                   -534.87683641

 Adding F12 terms to K(Cij), methodcc=6,  factor= 1.0

 ITER.      SQ.NORM     CORR.ENERGY   TOTAL ENERGY   ENERGY CHANGE        DEN1      VAR(S)    VAR(P)  DIIS     TIME  TIME/IT
   1      1.16702263    -0.51063077  -535.38746718    -0.00771947     0.01081039  0.38D-02  0.40D-02  1  1   158.16     4.72
   2      1.18372385    -0.51162498  -535.38846139    -0.00099421    -0.01430980  0.13D-03  0.86D-03  2  2   203.70     4.81
   3      1.19277153    -0.51210795  -535.38894436    -0.00048297    -0.00332059  0.91D-04  0.12D-03  3  3   248.79     4.82
   4      1.19882893    -0.51215402  -535.38899044    -0.00004607    -0.00198661  0.85D-05  0.14D-04  4  4   294.30     4.84
   5      1.20081958    -0.51216512  -535.38900153    -0.00001110    -0.00039774  0.24D-05  0.14D-05  5  5   340.21     4.86
   6      1.20121605    -0.51215233  -535.38898875     0.00001279    -0.00001664  0.33D-06  0.28D-06  6  6   386.19     4.88
   7      1.20132875    -0.51215289  -535.38898930    -0.00000055    -0.00001773  0.65D-07  0.65D-07  6  1   432.18     4.89
   8      1.20135330    -0.51215217  -535.38898858     0.00000072    -0.00000257  0.17D-07  0.15D-07  6  2   478.17     4.90
   9      1.20136135    -0.51215205  -535.38898846     0.00000012    -0.00000012  0.57D-08  0.36D-08  6  3   523.65     4.90
  10      1.20136605    -0.51215215  -535.38898857    -0.00000010    -0.00000065  0.23D-08  0.83D-09  6  4   569.28     4.90
  11      1.20136834    -0.51215208  -535.38898849     0.00000008     0.00000007  0.10D-08  0.23D-09  6  5   614.28     4.89
  12      1.20136771    -0.51215220  -535.38898862    -0.00000013     0.00000041  0.42D-09  0.91D-10  6  6   661.04     4.90
  13      1.20136662    -0.51215225  -535.38898866    -0.00000005     0.00000035  0.19D-09  0.46D-10  6  1   707.60     4.91
  14      1.20136494    -0.51215233  -535.38898874    -0.00000008     0.00000042  0.50D-10  0.13D-10  6  3   753.91     4.92
  15      1.20136474    -0.51215233  -535.38898874    -0.00000000    -0.00000003  0.69D-11  0.35D-11  6  2   799.56     4.92
  16      1.20136499    -0.51215231  -535.38898873     0.00000001    -0.00000003  0.14D-11  0.73D-12  6  5   845.70     4.92
  17      1.20136539    -0.51215230  -535.38898872     0.00000001    -0.00000008  0.40D-13  0.11D-12  6  4   891.79     4.92
  18      1.20136549    -0.51215230  -535.38898871     0.00000000    -0.00000002  0.50D-14  0.26D-13  6  6   937.94     4.93
  19      1.20136553    -0.51215229  -535.38898871     0.00000000    -0.00000001  0.53D-15  0.38D-14  6  4   983.85     4.93
  20      1.20136554    -0.51215229  -535.38898871     0.00000000    -0.00000000  0.23D-15  0.12D-14  6  2  1031.39     4.94
  21      1.20136553    -0.51215229  -535.38898871    -0.00000000     0.00000000  0.45D-16  0.22D-15  6  1  1077.19     4.94
  22      1.20136553    -0.51215229  -535.38898871    -0.00000000     0.00000000  0.30D-16  0.40D-16  6  3  1123.86     4.94
  23      1.20136553    -0.51215229  -535.38898871    -0.00000000     0.00000000  0.20D-16  0.89D-17  6  5  1169.63     4.94
  24      1.20136553    -0.51215229  -535.38898871    -0.00000000     0.00000000  0.15D-16  0.51D-17  6  2  1214.62     4.93
  25      1.20136553    -0.51215229  -535.38898871    -0.00000000     0.00000000  0.65D-17  0.21D-17  6  6  1259.99     4.93
  26      1.20136553    -0.51215229  -535.38898871    -0.00000000     0.00000000  0.35D-17  0.11D-17  6  4  1304.69     4.93
  27      1.20136553    -0.51215229  -535.38898871     0.00000000    -0.00000000  0.19D-17  0.59D-18  6  3  1349.86     4.92
  28      1.20136553    -0.51215229  -535.38898871     0.00000000    -0.00000000  0.94D-18  0.29D-18  6  1  1395.28     4.92
  29      1.20136553    -0.51215229  -535.38898871     0.00000000     0.00000000  0.29D-18  0.10D-18  6  5  1440.64     4.92
  30      1.20136553    -0.51215229  -535.38898871    -0.00000000     0.00000000  0.23D-18  0.97D-19  6  2  1486.11     4.92

 Norm of t1 vector:      0.09047607      S-energy:    -0.00000000      T1 diagnostic:  0.01709837
                                                                       D1 diagnostic:  0.04957622
                                                                       D2 diagnostic:  0.26127063 (external, symmetry=1)

 Doubles amplitudes (print threshold =  0.500E-01):

         I         J         SYM. A    SYM. B    A         B      T(IJ, AB)

         4         4         1         1         1         1     -0.18265769

 Adding energy correction from Wij-K(Fij), methodcc=6  factor= 1.0

  CCSD correlation energy              -0.512152294596
  MP2-F12 correction (uncoupled)       -0.026110041815
  C*T doubles correction               -0.000523208575
  f12b correction                       0.005346388720


 Total CPU time for triples:    123.74 sec


 RESULTS
 =======

  Reference energy                   -534.876723017121
  F12 singles correction               -0.000113396638

 F12 singles corrections added to reference energy

  New reference energy               -534.876836413760

  F12a singlet correction              -0.024857372742
  F12a triplet correction              -0.001775877648
  F12a total correction                -0.026633250390

 F12a corrections for ansatz F12/3C(FIX) added to CCSD energy

  CCSD-F12a singlet pair energy        -0.384352721426
  CCSD-F12a triplet pair energy        -0.154432818865
  CCSD-F12a correlation energy         -0.538785544987

  Triples (T) contribution             -0.028243771798
  Total correlation energy             -0.567029316784

  CCSD-F12a total energy             -535.415621958746
  CCSD[T]-F12a energy                -535.444891572580
  CCSD-T-F12a energy                 -535.443629133927
 !CCSD(T)-F12a total energy          -535.443865730544

 F12b corrections for ansatz F12/3C(FIX) added to CCSD(T)-F12a energy

  CCSD-F12b singlet pair energy        -0.379236013895
  CCSD-F12b triplet pair energy        -0.154203137675
  CCSD-F12b correlation energy         -0.533439156266

  Triples (T) contribution             -0.028243771798
  Total correlation energy             -0.561682928064

  CCSD-F12b total energy             -535.410275570026
  CCSD[T]-F12b energy                -535.439545183860
  CCSD-T-F12b energy                 -535.438282745206
 !CCSD(T)-F12b total energy          -535.438519341823

 Timing summary (sec):

 STEP                 CPU(USER)    SYS     CPU(TOT)    WALL
 Transformation         49.02      0.84     49.86      6.64
 CCSD iterations      1372.41     42.79   1415.20    147.60
 Triples               123.74      1.17    124.91     19.23
 MP2-F12                64.85      0.92     65.77     29.36
 F12b energy            41.38      1.18     42.56      4.42

 Program statistics:

 Available memory in ccsd:               499999654
 Min. memory needed in ccsd:               2702012
 Max. memory used in ccsd:                 3402474
 Max. memory used in cckext:               5507995 (31 integral passes)



 **********************************************************************************************************************************
 DATASETS  * FILE   NREC   LENGTH (MB)   RECORD NAMES
              1      20     2252.35       500      610      700      900      950      970     1000      129      960     1100   
                                          VAR    BASINP    GEOM    SYMINP    ZMAT    AOBASIS   BASIS     P2S    ABASIS      S 
                                         1400     1410     1200     1210     1080     1600     1650     1300     1700     1380   
                                           T        V       H0       H01     AOSYM     SMH    MOLCAS    ERIS     OPER     JKOP   

              2       6        1.49       700     1000      520     2100     7360     7350   
                                         GEOM     BASIS   MCVARS     RHF    F12ABS    EF12   

 PROGRAMS   *        TOTAL   CCSD(T)    HF-SCF       INT
 CPU TIMES  *      2094.54   1651.43    272.90    170.07
 REAL TIME  *       292.41 SEC
 DISK USED  *         6.13 GB
 **********************************************************************************************************************************
 SETTING E_PVQZ         =      -535.43851934  AU                              
 SETTING BASIS          =    AUG-CC-PCVQZ-F12


 Recomputing integrals since basis changed


 Using spherical harmonics

 Library entry O      S cc-pCVQZ-F12         selected for orbital group  1
 Library entry O      P cc-pCVQZ-F12         selected for orbital group  1
 Library entry O      D cc-pCVQZ-F12         selected for orbital group  1
 Library entry O      D vqz-f12-diff         selected for orbital group  1
 Library entry O      F cc-pCVQZ-F12         selected for orbital group  1
 Library entry O      F vqz-f12-diff         selected for orbital group  1
 Library entry O      G cc-pCVQZ-F12         selected for orbital group  1
 Library entry O      G vqz-f12-diff         selected for orbital group  1
 Library entry H      S cc-pVQZ-F12          selected for orbital group  2
 Library entry H      P cc-pVQZ-F12          selected for orbital group  2
 Library entry H      P vqz-f12-diff         selected for orbital group  2
 Library entry H      D cc-pVQZ-F12          selected for orbital group  2
 Library entry H      D vqz-f12-diff         selected for orbital group  2
 Library entry H      F cc-pVQZ-F12          selected for orbital group  2
 Library entry H      F vqz-f12-diff         selected for orbital group  2
 Library entry CL     S cc-pCVQZ-F12         selected for orbital group  3
 Library entry CL     P cc-pCVQZ-F12         selected for orbital group  3
 Library entry CL     D cc-pCVQZ-F12         selected for orbital group  3
 Library entry CL     D vqz-f12-diff         selected for orbital group  3
 Library entry CL     F cc-pCVQZ-F12         selected for orbital group  3
 Library entry CL     F vqz-f12-diff         selected for orbital group  3
 Library entry CL     G cc-pCVQZ-F12         selected for orbital group  3
 Library entry CL     G vqz-f12-diff         selected for orbital group  3


 PROGRAM * SEWARD (Integral evaluation for generally contracted gaussian basis sets)     Author: Roland Lindh, 1990

 Geometry written to block  1 of record 700

 Orientation using atomic masses  
 Molecule type: Asymmetric top
 Symmetry elements: X
 Rotational constants:       9.8976002     10.0671911    587.5376563 GHz  (calculated with average atomic masses)

 Point group  Cs  



 ATOMIC COORDINATES

 NR  ATOM    CHARGE       X              Y              Z

   1  O       8.00    0.000000000    0.106313882   -2.669810556
   2  H       1.00    0.000000000   -1.693544741   -2.655849157
   3  CL     17.00    0.000000000    0.000170174    1.280351553

 Bond lengths in Bohr (Angstrom)

 1-2  1.799912771  1-3  3.951587931
     ( 0.952472820)     ( 2.091090280)

 Bond angles

  2-1-3   88.01636030

 NUCLEAR CHARGE:                   26
 NUMBER OF PRIMITIVE AOS:         429
 NUMBER OF SYMMETRY AOS:          344
 NUMBER OF CONTRACTIONS:          299   (  188A'  +  111A"  )
 NUMBER OF INNER CORE ORBITALS:     1   (    1A'  +    0A"  )
 NUMBER OF OUTER CORE ORBITALS:     5   (    4A'  +    1A"  )
 NUMBER OF VALENCE ORBITALS:        9   (    7A'  +    2A"  )


 NUCLEAR REPULSION ENERGY   42.82841062


 Eigenvalues of metric

         1 0.175E-05 0.176E-05 0.697E-05 0.151E-04 0.169E-04 0.182E-04 0.245E-04 0.996E-04
         2 0.176E-05 0.171E-04 0.203E-03 0.823E-03 0.143E-02 0.241E-02 0.362E-02 0.497E-02


 Contracted 2-electron integrals neglected if value below      1.0D-14
 AO integral compression algorithm  1   Integral accuracy      1.0D-14

     3145.728 MB (compressed) written to integral file ( 61.9%)


 NUMBER OF SORTED TWO-ELECTRON INTEGRALS:  508447065.     BUFFER LENGTH:  32768
 NUMBER OF SEGMENTS:  32  SEGMENT LENGTH:   15999503      RECORD LENGTH: 262144

 Memory used in sort:      16.29 MW

 SORT1 READ   635147888. AND WROTE   448284162. INTEGRALS IN   2582 RECORDS. CPU TIME:     5.42 SEC, REAL TIME:     7.40 SEC
 SORT2 READ   448284162. AND WROTE   508447065. INTEGRALS IN  12000 RECORDS. CPU TIME:     5.06 SEC, REAL TIME:     6.50 SEC

 FILE SIZES:   FILE 1:  3178.1 MBYTE,  FILE 4:  5414.9 MBYTE,   TOTAL:   8593.0 MBYTE

 OPERATOR DM      FOR CENTER  0  COORDINATES:    0.000000    0.000000    0.000000


 **********************************************************************************************************************************
 DATASETS  * FILE   NREC   LENGTH (MB)   RECORD NAMES
              1      19     2496.58       500      610      700      900      950      970     1001      129      960     1100   
                                          VAR    BASINP    GEOM    SYMINP    ZMAT    AOBASIS   BASIS     P2S    ABASIS      S 
                                         1400     1410     1200     1210     1080     1600     1650     1300     1700   
                                           T        V       H0       H01     AOSYM     SMH    MOLCAS    ERIS     OPER   

              2       7        1.55       700     1000      520     2100     7360     7350     1001   
                                         GEOM     BASIS   MCVARS     RHF    F12ABS    EF12     BASIS   

 PROGRAMS   *        TOTAL       INT   CCSD(T)    HF-SCF       INT
 CPU TIMES  *      2326.62    232.08   1651.43    272.90    170.07
 REAL TIME  *       354.80 SEC
 DISK USED  *         8.00 GB
 **********************************************************************************************************************************


 Program * Restricted Hartree-Fock

 Molecular orbitals read from record     2100.2  Type=RHF/CANONICAL  

 Present basis size:      188  111
 Previous basis size:     172  102
 Previous occupation:      10    3
 Previous closed-shells:   10    3
 Previous core-orbitals:    5    1
 Present occupation:       10    3
 Present closed-shells:    10    3
 Present core-orbitals:     5    1
 Wavefunction symmetry:    1   Singlet 

 Orbital overlap <old|new>:  < 1.1| 1.1> = 1.000000   < 2.1| 2.1> = 1.000000   < 3.1| 3.1> = 1.000000   < 4.1| 4.1> = 1.000000
                             < 5.1| 5.1> = 1.000000   < 1.2| 1.2> = 1.000000   < 6.1| 6.1> = 1.000000   < 7.1| 7.1> = 1.000000
                             < 8.1| 8.1> = 1.000000   < 9.1| 9.1> = 1.000000   <10.1|10.1> = 1.000000   < 2.2| 2.2> = 1.000000
                             < 3.2| 3.2> = 1.000000


 Initial occupancy:  10   3

 NELEC=   26   SYM=1   MS2= 0   THRE=1.0D-12   THRD=1.0D-06   THRG=1.0D-06  HFMA2=F  DIIS_START=2   DIIS_MAX=10   DIIS_INCORE=F

 Level shifts:    0.00 (CLOSED)    0.00 (OPEN)    0.30 (GAP_MIN)

 ITER           ETOT              DE          GRAD        DDIFF     DIIS  NEXP   TIME(IT)  TIME(TOT)  DIAG
   1     -534.87672302    -534.87672302     0.00D+00     0.46D-01     0     0      24.49     24.69    start
   2     -534.87672913      -0.00000612     0.40D-03     0.29D-03     1     0      24.06     48.75    diag
   3     -534.87672914      -0.00000000     0.65D-05     0.67D-05     2     0      24.12     72.87    diag
   4     -534.87672914      -0.00000000     0.19D-06     0.27D-06     3     0      25.09     97.96    diag
   5     -534.87672914      -0.00000000     0.31D-07     0.32D-07     4     0      24.23    122.19    diag
   6     -534.87672914       0.00000000     0.17D-07     0.11D-07     5     0      24.08    146.27    diag
   7     -534.87672914      -0.00000000     0.52D-08     0.56D-08     0     0      24.23    170.50    diag

 Final occupancy:  10   3

 !RHF STATE 1.1 Energy               -534.876729136605
  RHF One-electron energy            -824.076331285714
  RHF Two-electron energy             246.371191529358
  RHF Kinetic energy                  534.502541643835
  RHF Nuclear energy                   42.828410619752
  RHF Virial quotient                  -1.000700066817

 !RHF STATE 1.1 Dipole moment           0.00000000    -0.62766458    -0.09384803
 Dipole moment /Debye                   0.00000000    -1.59536424    -0.23853789

 Orbital energies:

           1.1          2.1          3.1          4.1          5.1          6.1          7.1          8.1          9.1         10.1
   -104.896673   -20.681822   -10.615438    -8.081667    -8.080032    -1.368056    -1.072876    -0.709019    -0.524423    -0.486981

          11.1         12.1
     -0.028244     0.048917

           1.2          2.2          3.2          4.2          5.2
     -8.079988    -0.590355    -0.479643     0.087229     0.123160


 HOMO      3.2    -0.479643 =     -13.0518eV
 LUMO     11.1    -0.028244 =      -0.7686eV
 LUMO-HOMO         0.451399 =      12.2832eV

 Orbitals saved in record  2101.2


 **********************************************************************************************************************************
 DATASETS  * FILE   NREC   LENGTH (MB)   RECORD NAMES
              1      19     2496.58       500      610      700      900      950      970     1001      129      960     1100   
                                          VAR    BASINP    GEOM    SYMINP    ZMAT    AOBASIS   BASIS     P2S    ABASIS      S 
                                         1400     1410     1200     1210     1080     1600     1650     1300     1700   
                                           T        V       H0       H01     AOSYM     SMH    MOLCAS    ERIS     OPER   

              2       8        2.38       700     1000      520     2100     7360     7350     1001     2101   
                                         GEOM     BASIS   MCVARS     RHF    F12ABS    EF12     BASIS     RHF  

 PROGRAMS   *        TOTAL    HF-SCF       INT   CCSD(T)    HF-SCF       INT
 CPU TIMES  *      2497.15    170.53    232.08   1651.43    272.90    170.07
 REAL TIME  *       379.33 SEC
 DISK USED  *         8.00 GB
 **********************************************************************************************************************************


 PROGRAM * CCSD (Closed-shell coupled cluster)     Authors: C. Hampel, H.-J. Werner, 1991, M. Deegan, P.J. Knowles, 1992

                                  CCSD-F12 implementation by  H.-J. Werner, 2007

                   Density fitting integral evaluation by F.R. Manby, 2003,2007, G. Knizia, 2010



 Convergence thresholds:  THRVAR = 1.00D-08  THRDEN = 1.00D-12

 CCSD(T)     terms to be evaluated (factor= 1.000)


 Number of core orbitals:           6 (   5   1 )
 Number of closed-shell orbitals:   7 (   5   2 )
 Number of external orbitals:     286 ( 178 108 )

 Molecular orbitals read from record     2101.2  Type=RHF/CANONICAL (state 1.1)

 MP2-F12 correlation treatment (H.-J. Werner, 2006)
 ==================================================

 Using MP2-F12 with ansatz 3C(FIX)

 Using projected zeroth-order Hamiltonian (+Z)

 FOCKRIB=T FOCKRIC=T FOCKRIP=T CABSP=T CABSA=T CABSK=T CABSF=T GBC=F EBC=F DMAT=T NOFIK=T NOPAO=1 SOLVE=-1  USEPAO=0
 EXCH_A= T EXCH_B= F EXCH_C= F EXCH_P= F

 Geminal basis:    OPTFULL  GEM_TYPE=SLATER  BETA=1.4  NGEM=6

 Optimizing Gaussian exponents for each gem_beta

 Geminal optimization for beta= 1.4000
 Weight function:   m=0, omega= 1.8329

 Augmented Hessian optimization of geminal fit. Trust ratio= 0.40000
 Convergence reached after   2 iterations. Final gradient= 5.75D-17, Step= 7.43D-07, Delta= 1.11D-09

 Alpha:                 0.32335     1.22090     4.06503    13.28654    49.65231   274.64957
 Coeff:                 0.21345     0.30057     0.20316     0.12774     0.08045     0.05014


 Symmetry turned off. Reference energy:       -534.876729136605

 All pairs explicitly correlated. Number of r12-pairs:           28

 Excluding core orbitals from MO domains

 AO(A)-basis ORBITAL           loaded. Number of functions:     299
 RI(R)-basis V5Z/JKFIT         loaded. Number of functions:     410
 DF-basis VQZ-F12/JKFIT        loaded. Number of functions:     402

 Screening thresholds:   THRAO=  1.00D-10  THRMO=  1.00D-09  THRPROD=  1.00D-09
                         THRSW=  1.00D-05  THROV=  1.00D-12  THRAOF12= 1.00D-08

 CPU time for Fock operators                     13.94 sec

 Construction of ABS:
 Smallest eigenvalue of S          9.02E-05  (threshold= 1.00E-08)
 Ratio eigmin/eigmax               1.62E-05  (threshold= 1.00E-09)
 Smallest eigenvalue of S kept     9.02E-05  (threshold= 9.02E-05, 0 functions deleted, 410 kept)

 Construction of CABS:
 Smallest eigenvalue of S          2.26E-09  (threshold= 1.00E-08)
 Ratio eigmin/eigmax               2.26E-09  (threshold= 1.00E-09)
 Smallest eigenvalue of S kept     1.98E-08  (threshold= 1.98E-08, 2 functions deleted, 408 kept)

 CPU time for CABS singles                        0.29 sec

 CABS-singles contribution of  -0.00011051 patched into reference energy.
 New reference energy        -534.87683965

 AO(A)-basis ORBITAL           loaded. Number of functions:     299
 RI(R)-basis V5Z/JKFIT         loaded. Number of functions:     410
 DF-basis AUG-CC-PWCV5Z/MP2FIT loaded. Number of functions:     866

 Screening thresholds:   THRAO=  1.00D-10  THRMO=  1.00D-09  THRPROD=  1.00D-09
                         THRSW=  1.00D-05  THROV=  1.00D-12  THRAOF12= 1.00D-08

 CPU time for 3-index integral evaluation        31.90 sec
 CPU time for first  half transformation          5.14 sec ( 2632.8 MFLOP/sec)
 CPU time for second half transformation          0.38 sec (  868.1 MFLOP/sec)
 CPU time for sorting                             0.07 sec
 CPU time for fitting                             0.44 sec (17849.0 MFLOP/sec)
 CPU time for tilde quantities                    0.57 sec (19046.3 MFLOP/sec)
 CPU time for assembly                            2.60 sec (22820.3 MFLOP/sec)
 CPU time for tranop_f12                          4.12 sec (12593.4 MFLOP/sec)
 CPU time for f12 integrals (total)              54.79 sec, Elapsed time:     20.37 sec
 CPU time for f12 matrices (total)                1.43 sec, Elapsed time:      0.20 sec

 Diagonal F12 approximation with fixed coefficients:  TSING= 0.500,  TTRIP= 0.250 (scaled by -1/beta)

 DF-MP2-F12 energy corrections:
 ==============================
 Approx.                                    Singlet             Triplet             Total
 DF-MP2-F12/3*C(DX,FIX)                -0.023005992880     -0.001499842085     -0.024505834965
 DF-MP2-F12/3*C(FIX)                   -0.024804040767     -0.001716930070     -0.026520970838
 DF-MP2-F12/3C(FIX)                    -0.024682895738     -0.001704449775     -0.026387345513

 DF-MP2-F12 correlation energies:
 ================================
 Approx.                                    Singlet             Triplet             Ecorr            Total Energy
 DF-MP2                                -0.328807783769     -0.174471070869     -0.503278854638   -535.380118502279
 DF-MP2-F12/3*C(DX,FIX)                -0.351813776649     -0.175970912954     -0.527784689603   -535.404624337244
 DF-MP2-F12/3*C(FIX)                   -0.353611824537     -0.176188000939     -0.529799825476   -535.406639473117
 DF-MP2-F12/3C(FIX)                    -0.353490679507     -0.176175520643     -0.529666200150   -535.406505847792

 SCS-DF-MP2 energies (F_SING= 1.20000  F_TRIP= 0.62222  F_PARALLEL= 0.33333):
 ============================================================================
 SCS-DF-MP2                            -0.503129117952   -535.379968765594
 SCS-DF-MP2-F12/3*C(DX,FIX)            -0.531669544483   -535.408509192125
 SCS-DF-MP2-F12/3*C(FIX)               -0.533962278917   -535.410801926558
 SCS-DF-MP2-F12/3C(FIX)                -0.533809139365   -535.410648787006

 Symmetry restored.
 Symmetry transformation completed.

 Number of N-1 electron functions:               7
 Number of N-2 electron functions:              28
 Number of singly external CSFs:              1106
 Number of doubly external CSFs:           1014027
 Total number of CSFs:                     1015134

 Length of J-op  integral file:             235.55 MB
 Length of K-op  integral file:             318.00 MB
 Length of 3-ext integral record:             0.00 MB

 Memory could be reduced to 114.88 Mwords without degradation in triples

 Integral transformation finished. Total CPU:  67.11 sec, npass=  1  Memory used:  34.76 MW

 Reference energy:                   -534.87683965

 Adding F12 terms to K(Cij), methodcc=6,  factor= 1.0

 ITER.      SQ.NORM     CORR.ENERGY   TOTAL ENERGY   ENERGY CHANGE        DEN1      VAR(S)    VAR(P)  DIIS     TIME  TIME/IT
   1      1.16703572    -0.51096444  -535.38780409    -0.00767945     0.01081544  0.38D-02  0.40D-02  1  1   200.21     6.48
   2      1.18376936    -0.51200259  -535.38884224    -0.00103815    -0.01434934  0.13D-03  0.87D-03  2  2   263.06     6.60
   3      1.19263773    -0.51249050  -535.38933014    -0.00048791    -0.00321647  0.94D-04  0.12D-03  3  3   326.08     6.65
   4      1.19881604    -0.51253081  -535.38937045    -0.00004031    -0.00205929  0.86D-05  0.14D-04  4  4   389.05     6.67
   5      1.20081670    -0.51254183  -535.38938148    -0.00001102    -0.00039794  0.24D-05  0.14D-05  5  5   451.60     6.68
   6      1.20122134    -0.51252980  -535.38936945     0.00001203    -0.00001677  0.33D-06  0.28D-06  6  6   513.23     6.66
   7      1.20133517    -0.51253038  -535.38937003    -0.00000058    -0.00001797  0.66D-07  0.65D-07  6  1   575.51     6.66
   8      1.20135991    -0.51252954  -535.38936919     0.00000084    -0.00000265  0.17D-07  0.15D-07  6  2   637.52     6.66
   9      1.20136769    -0.51252945  -535.38936909     0.00000010    -0.00000001  0.57D-08  0.36D-08  6  3   699.88     6.66
  10      1.20137249    -0.51252954  -535.38936919    -0.00000010    -0.00000071  0.23D-08  0.83D-09  6  4   763.14     6.67
  11      1.20137484    -0.51252946  -535.38936911     0.00000008     0.00000004  0.10D-08  0.23D-09  6  5   825.09     6.67
  12      1.20137427    -0.51252958  -535.38936923    -0.00000012     0.00000039  0.42D-09  0.91D-10  6  6   888.10     6.67
  13      1.20137319    -0.51252963  -535.38936928    -0.00000005     0.00000035  0.19D-09  0.46D-10  6  1   950.23     6.67
  14      1.20137151    -0.51252971  -535.38936936    -0.00000008     0.00000042  0.50D-10  0.13D-10  6  3  1012.97     6.67
  15      1.20137130    -0.51252971  -535.38936936    -0.00000000    -0.00000002  0.69D-11  0.35D-11  6  2  1074.66     6.67
  16      1.20137154    -0.51252970  -535.38936935     0.00000001    -0.00000003  0.14D-11  0.72D-12  6  5  1136.79     6.67
  17      1.20137194    -0.51252968  -535.38936933     0.00000001    -0.00000008  0.41D-13  0.10D-12  6  4  1199.18     6.66
  18      1.20137204    -0.51252968  -535.38936933     0.00000000    -0.00000002  0.51D-14  0.26D-13  6  6  1260.91     6.66
  19      1.20137209    -0.51252968  -535.38936932     0.00000000    -0.00000001  0.52D-15  0.38D-14  6  4  1322.93     6.66
  20      1.20137209    -0.51252968  -535.38936932     0.00000000    -0.00000000  0.22D-15  0.12D-14  6  2  1385.23     6.66
  21      1.20137209    -0.51252968  -535.38936932    -0.00000000     0.00000000  0.44D-16  0.23D-15  6  1  1447.31     6.66
  22      1.20137208    -0.51252968  -535.38936932    -0.00000000     0.00000000  0.30D-16  0.58D-16  6  3  1508.86     6.65
  23      1.20137208    -0.51252968  -535.38936933    -0.00000000     0.00000000  0.21D-16  0.11D-16  6  5  1570.32     6.65
  24      1.20137208    -0.51252968  -535.38936933    -0.00000000     0.00000000  0.18D-16  0.87D-17  6  6  1632.88     6.65
  25      1.20137208    -0.51252968  -535.38936933    -0.00000000     0.00000000  0.11D-16  0.39D-17  6  4  1695.25     6.65
  26      1.20137208    -0.51252968  -535.38936933     0.00000000     0.00000000  0.61D-17  0.18D-17  6  2  1757.37     6.65
  27      1.20137208    -0.51252968  -535.38936933    -0.00000000     0.00000000  0.53D-17  0.14D-17  6  1  1819.65     6.65
  28      1.20137208    -0.51252968  -535.38936933     0.00000000     0.00000000  0.40D-17  0.11D-17  6  3  1882.64     6.65
  29      1.20137208    -0.51252968  -535.38936933     0.00000000    -0.00000000  0.31D-17  0.83D-18  6  6  1945.95     6.66
  30      1.20137208    -0.51252968  -535.38936933     0.00000000    -0.00000000  0.26D-17  0.68D-18  6  5  2007.66     6.66
  31      1.20137208    -0.51252968  -535.38936933     0.00000000    -0.00000000  0.28D-17  0.72D-18  6  4  2069.26     6.65
  32      1.20137208    -0.51252968  -535.38936933     0.00000000    -0.00000000  0.23D-17  0.60D-18  6  2  2131.46     6.65

 Norm of t1 vector:      0.09045142      S-energy:     0.00000000      T1 diagnostic:  0.01709371
                                                                       D1 diagnostic:  0.04957203
                                                                       D2 diagnostic:  0.26125117 (external, symmetry=1)

 Doubles amplitudes (print threshold =  0.500E-01):

         I         J         SYM. A    SYM. B    A         B      T(IJ, AB)

         4         4         1         1         1         1     -0.18263337

 Adding energy correction from Wij-K(Fij), methodcc=6  factor= 1.0

  CCSD correlation energy              -0.512529677394
  MP2-F12 correction (uncoupled)       -0.025868538271
  C*T doubles correction               -0.000513603338
  f12b correction                       0.005286784257


 Total CPU time for triples:    138.75 sec


 RESULTS
 =======

  Reference energy                   -534.876729136605
  F12 singles correction               -0.000110511036

 F12 singles corrections added to reference energy

  New reference energy               -534.876839647641

  F12a singlet correction              -0.024675161762
  F12a triplet correction              -0.001706979847
  F12a total correction                -0.026382141609

 F12a corrections for ansatz F12/3C(FIX) added to CCSD energy

  CCSD-F12a singlet pair energy        -0.384455952594
  CCSD-F12a triplet pair energy        -0.154455868967
  CCSD-F12a correlation energy         -0.538911819003

  Triples (T) contribution             -0.028268291320
  Total correlation energy             -0.567180110324

  CCSD-F12a total energy             -535.415751466644
  CCSD[T]-F12a energy                -535.445045649226
  CCSD-T-F12a energy                 -535.443783674747
 !CCSD(T)-F12a total energy          -535.444019757965

 F12b corrections for ansatz F12/3C(FIX) added to CCSD(T)-F12a energy

  CCSD-F12b singlet pair energy        -0.379391988160
  CCSD-F12b triplet pair energy        -0.154233049143
  CCSD-F12b correlation energy         -0.533625034746

  Triples (T) contribution             -0.028268291320
  Total correlation energy             -0.561893326066

  CCSD-F12b total energy             -535.410464682387
  CCSD[T]-F12b energy                -535.439758864968
  CCSD-T-F12b energy                 -535.438496890490
 !CCSD(T)-F12b total energy          -535.438732973707

 Timing summary (sec):

 STEP                 CPU(USER)    SYS     CPU(TOT)    WALL
 Transformation         67.51      0.99     68.50      9.00
 CCSD iterations      1992.83     53.87   2046.70    212.99
 Triples               138.75      1.47    140.22     23.38
 MP2-F12                71.34      1.00     72.34     31.54
 F12b energy            56.78      1.40     58.18      6.01

 Program statistics:

 Available memory in ccsd:               499999644
 Min. memory needed in ccsd:               3237312
 Max. memory used in ccsd:                 4081365
 Max. memory used in cckext:               6889289 (33 integral passes)



 **********************************************************************************************************************************
 DATASETS  * FILE   NREC   LENGTH (MB)   RECORD NAMES
              1      20     2827.45       500      610      700      900      950      970     1001      129      960     1100   
                                          VAR    BASINP    GEOM    SYMINP    ZMAT    AOBASIS   BASIS     P2S    ABASIS      S 
                                         1400     1410     1200     1210     1080     1600     1650     1300     1700     1380   
                                           T        V       H0       H01     AOSYM     SMH    MOLCAS    ERIS     OPER     JKOP   

              2       9        2.93       700     1000      520     2100     7360     7350     1001     2101     7360(1)
                                         GEOM     BASIS   MCVARS     RHF    F12ABS    EF12     BASIS     RHF    F12ABS    

 PROGRAMS   *        TOTAL   CCSD(T)    HF-SCF       INT   CCSD(T)    HF-SCF       INT
 CPU TIMES  *      4824.40   2327.23    170.53    232.08   1651.43    272.90    170.07
 REAL TIME  *       662.34 SEC
 DISK USED  *         8.00 GB
 **********************************************************************************************************************************
 SETTING E_PCVQZ        =      -535.43873297  AU                              
 SETTING E_CV           =        -0.00021363  AU                              
 SETTING XXX            =    "MMM"
 SETTING POINT          =         1.00000000                                  

 *** ### HOCl


 XXX       ROH          ROCL          ALPHA         E_CV               POINT
 "MMM"   0.95247282   2.09109028   88.01636030   -0.00021363188409   1.000000000000
                                                  

 CCSD(T)-F12/aug-cc-pCVQZ-F12 energy=   -535.438732973707

     CCSD(T)-F12          HF-SCF     CCSD(T)-F12          HF-SCF
   -535.43873297   -534.87672914   -535.43851934   -534.87672302
 **********************************************************************************************************************************
 Molpro calculation terminated
