
 Working directory              : /tmp/asmola/molpro.m2WftAPUQB/
 Global scratch directory       : /tmp/asmola/molpro.m2WftAPUQB/
 Wavefunction directory         : /home/asmola/wfu/
 Main file repository           : /tmp/asmola/molpro.m2WftAPUQB/

 id        : uclcc

 Nodes                        nprocs
 vincent.theory.phys.ucl.ac.uk    1
 GA implementation: MPI file
 GA implementation (serial work in mppx): MPI file

 Using customized tuning parameters: mindgm=1; mindgv=20; mindgc=4; mindgr=1; noblas=0; minvec=7
 default implementation of scratch files=df  


 Variables initialized (1015), CPU time= 0.01 sec
 ***,HOCl CV correction
 memory,500,m;
 
  gthresh,energy=1.d-12,zero=1.d-14,thrint=1.d-14,oneint=1.d-14,twoint=1.d-14,prefac=1.d-20
 
  geometry={angstrom
  o
  h , 1, roh
  cl , 1, rocl, 2, alpha
  }
 
  roh = 0.96446195
  rocl = 1.68888476
  alpha = 180.00
 
 basis=aug-cc-pVQZ-f12
 hf
 gprint,orbital,occupation
 {ccsd(t)-f12,ri_basis=cc-pV5Z/jkfit,df_basis=aug-cc-pwCV5Z/mp2fit,gem_beta=1.4}
 
 E_pVQZ = ENERGY(2)
 
 basis=aug-cc-pCVQZ-f12
 hf
 gprint,orbital,occupation
 {ccsd(t)-f12,ri_basis=cc-pV5Z/jkfit,df_basis=aug-cc-pwCV5Z/mp2fit,gem_beta=1.4}
 
 E_pCVQZ = ENERGY(2)
 
 E_CV = E_pCVQZ - E_pVQZ
 
                                                                                 ! Output the energy
 xxx = "mmm"
 point = 1
 text ### HOCl
 table,xxx,roh,rocl,alpha,E_CV,point
 DIGITS, 0, 8, 8, 8, 14, 12, 4
 Commands initialized (818), CPU time= 0.00 sec, 672 directives.
 Default parameters read. Elapsed time= 0.05 sec

 Checking input...
 Passed
1


                                         ***  PROGRAM SYSTEM MOLPRO  ***
                                       Copyright, TTI GmbH Stuttgart, 2015
                                    Version 2022.1 linked Mar  3 2022 23:20:00


 **********************************************************************************************************************************
 LABEL *   HOCl CV correction                                                            
  (8 PROC) 64 bit serial version                                                         DATE: 04-Aug-25          TIME: 23:30:50  
 **********************************************************************************************************************************

 SHA1:             31073afc4d8441e10870424e0d77336a33bc4286
 **********************************************************************************************************************************

 Memory per process:       500 MW
 Total memory per node:    500 MW

 GA preallocation disabled
 GA check disabled

 Variable memory set to 500.0 MW


 THRESHOLDS:

 ZERO    =  1.00D-14  ONEINT  =  1.00D-14  TWOINT  =  1.00D-14  PREFAC  =  1.00D-20  XXXXXX  =  1.00D-09  EORDER  =  1.00D-04
 ENERGY  =  1.00D-12  ETEST   =  0.00D+00  EDENS   =  0.00D+00  THRDEDEF=  1.00D-06  GRADIENT=  1.00D-05  STEP    =  1.00D-03
 ORBITAL =  1.00D-05  CIVEC   =  1.00D-05  COEFF   =  1.00D-04  PRINTCI =  5.00D-02  PUNCHCI =  9.90D+01  OPTGRAD =  3.00D-04
 OPTENERG=  1.00D-06  OPTSTEP =  3.00D-04  THRGRAD =  1.00D-10  COMPRESS=  1.00D-11  VARMIN  =  1.00D-07  VARMAX  =  1.00D-03
 THRDOUB =  0.00D+00  THRDIV  =  1.00D-05  THRRED  =  1.00D-07  THRPSP  =  1.00D+00  THRDC   =  1.00D-10  THRCS   =  1.00D-10
 THRNRM  =  1.00D-08  THREQ   =  0.00D+00  THRDE   =  1.00D+00  THRREF  =  1.00D-05  SPARFAC =  1.00D+00  THRDLP  =  1.00D-07
 THRDIA  =  1.00D-10  THRDLS  =  1.00D-07  THRGPS  =  0.00D+00  THRKEX  =  0.00D+00  THRDIS  =  2.00D-01  THRVAR  =  1.00D-10
 THRLOC  =  1.00D-06  THRGAP  =  1.00D-06  THRLOCT = -1.00D+00  THRGAPT = -1.00D+00  THRORB  =  1.00D-06  THRMLTP =  0.00D+00
 THRCPQCI=  1.00D-10  KEXTA   =  0.00D+00  THRCOARS=  0.00D+00  SYMTOL  =  1.00D-06  GRADTOL =  1.00D-06  THROVL  =  1.00D-08
 THRORTH =  1.00D-08  THRDLOVL= -1.00D+00  GRID    =  1.00D-06  GRIDMAX =  1.00D-03  DTMAX   =  0.00D+00  THROCCDE=  1.00D-01
 THROCCDE=  1.00D-01  THRPRINT=  2.50D-01

 SETTING ROH            =         0.96446195                                  
 SETTING ROCL           =         1.68888476                                  
 SETTING ALPHA          =       180.00000000                                  
 SETTING BASIS          =    AUG-CC-PVQZ-F12


 Recomputing integrals since basis changed


 Using spherical harmonics

 Library entry O      S cc-pVQZ-F12          selected for orbital group  1
 Library entry O      P cc-pVQZ-F12          selected for orbital group  1
 Library entry O      D cc-pVQZ-F12          selected for orbital group  1
 Library entry O      D vqz-f12-diff         selected for orbital group  1
 Library entry O      F cc-pVQZ-F12          selected for orbital group  1
 Library entry O      F vqz-f12-diff         selected for orbital group  1
 Library entry O      G cc-pVQZ-F12          selected for orbital group  1
 Library entry O      G vqz-f12-diff         selected for orbital group  1
 Library entry H      S cc-pVQZ-F12          selected for orbital group  2
 Library entry H      P cc-pVQZ-F12          selected for orbital group  2
 Library entry H      P vqz-f12-diff         selected for orbital group  2
 Library entry H      D cc-pVQZ-F12          selected for orbital group  2
 Library entry H      D vqz-f12-diff         selected for orbital group  2
 Library entry H      F cc-pVQZ-F12          selected for orbital group  2
 Library entry H      F vqz-f12-diff         selected for orbital group  2
 Library entry CL     S cc-pVQZ-F12          selected for orbital group  3
 Library entry CL     P cc-pVQZ-F12          selected for orbital group  3
 Library entry CL     D cc-pVQZ-F12          selected for orbital group  3
 Library entry CL     D vqz-f12-diff         selected for orbital group  3
 Library entry CL     F cc-pVQZ-F12          selected for orbital group  3
 Library entry CL     F vqz-f12-diff         selected for orbital group  3
 Library entry CL     G cc-pVQZ-F12          selected for orbital group  3
 Library entry CL     G vqz-f12-diff         selected for orbital group  3


 PROGRAM * SEWARD (Integral evaluation for generally contracted gaussian basis sets)     Author: Roland Lindh, 1990

 Geometry written to block  1 of record 700

 Orientation using atomic masses  
 Molecule type: Linear
 Symmetry elements: X,Y
 Rotational constants:      14.0686474     14.0686474      0.0000000 GHz  (calculated with average atomic masses)

 Point group  C2v 



 ATOMIC COORDINATES

 NR  ATOM    CHARGE       X              Y              Z

   1  O       8.00    0.000000000    0.000000000    2.121836432
   2  H       1.00    0.000000000    0.000000000    3.944405375
   3  CL     17.00    0.000000000    0.000000000   -1.069693221

 Bond lengths in Bohr (Angstrom)

 1-2  1.822568943  1-3  3.191529652
     ( 0.964461950)     ( 1.688884760)

 Bond angles

  2-1-3  179.99999915

 NUCLEAR CHARGE:                   26
 NUMBER OF PRIMITIVE AOS:         399
 NUMBER OF SYMMETRY AOS:          319
 NUMBER OF CONTRACTIONS:          274   (  106A1  +   66B1  +   66B2  +   36A2  )
 NUMBER OF INNER CORE ORBITALS:     1   (    1A1  +    0B1  +    0B2  +    0A2  )
 NUMBER OF OUTER CORE ORBITALS:     5   (    3A1  +    1B1  +    1B2  +    0A2  )
 NUMBER OF VALENCE ORBITALS:        9   (    5A1  +    2B1  +    2B2  +    0A2  )


 NUCLEAR REPULSION ENERGY   50.39264400

 EXTRA SYMMETRY OF AOS IN SYMMETRY 1:   1 1 1 1 1 1 1 1 1 1   1 1 1 1 1 2 1 2 1 2   1 2 1 2 1 2 1 2 1 2   1 2 1 3 2 1 3 2 1 3
                                        2 1 1 1 1 1 1 1 1 1   1 1 2 1 2 1 2 1 2 1   2 1 1 1 1 1 1 1 1 1   1 1 1 1 1 1 1 1 2 1
                                        2 1 2 1 2 1 2 1 2 1   2 1 2 1 2 1 2 1 3 2   1 3 2 1 3 2
 EXTRA SYMMETRY OF AOS IN SYMMETRY 2:   1 1 1 1 1 1 1 1 1 1   1 1 1 2 1 2 1 2 1 2   1 2 1 2 1 2 1 1 1 1   1 1 1 1 1 2 1 2 1 1
                                        1 1 1 1 1 1 1 1 1 1   1 1 1 2 1 2 1 2 1 2   1 2 1 2 1 2
 EXTRA SYMMETRY OF AOS IN SYMMETRY 3:   1 1 1 1 1 1 1 1 1 1   1 1 1 2 1 2 1 2 1 2   1 2 1 2 1 2 1 1 1 1   1 1 1 1 1 2 1 2 1 1
                                        1 1 1 1 1 1 1 1 1 1   1 1 1 2 1 2 1 2 1 2   1 2 1 2 1 2
 EXTRA SYMMETRY OF AOS IN SYMMETRY 4:   1 1 1 1 1 1 1 1 1 1   2 1 2 1 2 1 1 1 1 1   1 1 1 1 1 1 1 1 1 1   1 2 1 2 1 2

 Eigenvalues of metric

         1 0.274E-05 0.867E-05 0.245E-04 0.282E-04 0.370E-04 0.143E-03 0.184E-03 0.215E-03
         2 0.288E-05 0.944E-04 0.423E-03 0.494E-03 0.103E-02 0.140E-02 0.305E-02 0.379E-02
         3 0.288E-05 0.944E-04 0.423E-03 0.494E-03 0.103E-02 0.140E-02 0.305E-02 0.379E-02
         4 0.226E-02 0.531E-02 0.229E-01 0.281E-01 0.765E-01 0.852E-01 0.999E-01 0.145E+00


 Contracted 2-electron integrals neglected if value below      1.0D-14
 AO integral compression algorithm  1   Integral accuracy      1.0D-14

     1146.356 MB (compressed) written to integral file ( 64.0%)


 NUMBER OF SORTED TWO-ELECTRON INTEGRALS:  181126150.     BUFFER LENGTH:  32768
 NUMBER OF SEGMENTS:  12  SEGMENT LENGTH:   15999078      RECORD LENGTH: 524288

 Memory used in sort:      16.56 MW

 SORT1 READ   223887267. AND WROTE   134049067. INTEGRALS IN    389 RECORDS. CPU TIME:     2.86 SEC, REAL TIME:     3.56 SEC
 SORT2 READ   134049067. AND WROTE   181126150. INTEGRALS IN   4373 RECORDS. CPU TIME:     1.95 SEC, REAL TIME:     2.41 SEC

 FILE SIZES:   FILE 1:  1178.0 MBYTE,  FILE 4:  1631.6 MBYTE,   TOTAL:   2809.6 MBYTE

 OPERATOR DM      FOR CENTER  0  COORDINATES:    0.000000    0.000000    0.000000


 **********************************************************************************************************************************
 DATASETS  * FILE   NREC   LENGTH (MB)   RECORD NAMES
              1      19      932.50       500      610      700      900      950      970     1000      129      960     1100   
                                          VAR    BASINP    GEOM    SYMINP    ZMAT    AOBASIS   BASIS     P2S    ABASIS      S 
                                         1400     1410     1200     1210     1080     1600     1650     1300     1700   
                                           T        V       H0       H01     AOSYM     SMH    MOLCAS    ERIS     OPER   

 PROGRAMS   *        TOTAL       INT
 CPU TIMES  *       173.06    172.94
 REAL TIME  *        44.79 SEC
 DISK USED  *         2.62 GB
 **********************************************************************************************************************************


 Program * Restricted Hartree-Fock

 Orbital guess generated from atomic densities. Full valence occupancy:    9   3   3   0

 Initial occupancy:   7   3   3   0

 NELEC=   26   SYM=1   MS2= 0   THRE=1.0D-12   THRD=1.0D-06   THRG=1.0D-06  HFMA2=F  DIIS_START=2   DIIS_MAX=10   DIIS_INCORE=F

 Level shifts:    0.00 (CLOSED)    0.00 (OPEN)    0.30 (GAP_MIN)

 ITER           ETOT              DE          GRAD        DDIFF     DIIS  NEXP   TIME(IT)  TIME(TOT)  DIAG
   1     -534.83111337    -534.83111337     0.00D+00     0.68D-01     0     0       1.60      3.05    start
   2     -534.85121391      -0.02010053     0.54D-02     0.45D-02     1     0       1.77      4.82    diag
   3     -534.85568104      -0.00446713     0.24D-02     0.18D-02     2     0       1.61      6.43    diag
   4     -534.85643194      -0.00075091     0.84D-03     0.53D-03     3     0       1.51      7.94    diag
   5     -534.85653615      -0.00010420     0.21D-03     0.21D-03     4     0       1.57      9.51    diag
   6     -534.85655640      -0.00002025     0.83D-04     0.12D-03     5     0       1.48     10.99    diag
   7     -534.85655736      -0.00000095     0.18D-04     0.31D-04     6     0       1.56     12.55    diag
   8     -534.85655738      -0.00000002     0.33D-05     0.49D-05     7     0       1.51     14.06    fixocc
   9     -534.85655738      -0.00000000     0.74D-06     0.85D-06     8     0       6.54     20.60    diag
  10     -534.85655738      -0.00000000     0.16D-06     0.17D-06     9     0       3.98     24.58    diag/orth
  11     -534.85655738      -0.00000000     0.28D-07     0.28D-07     9     0       1.79     26.37    diag
  12     -534.85655738      -0.00000000     0.44D-08     0.41D-08     0     0       1.52     27.89    diag

 Final occupancy:   7   3   3   0

 !RHF STATE 1.1 Energy               -534.856557380253
  RHF One-electron energy            -839.229498787695
  RHF Two-electron energy             253.980297411275
  RHF Kinetic energy                  534.570464824271
  RHF Nuclear energy                   50.392643996167
  RHF Virial quotient                  -1.000535182122

 !RHF STATE 1.1 Dipole moment           0.00000000     0.00000000     0.25174268
 Dipole moment /Debye                   0.00000000     0.00000000     0.63986607

 Orbital energies:

           1.1          2.1          3.1          4.1          5.1          6.1          7.1          8.1          9.1
   -104.928546   -20.562433   -10.644024    -8.110878    -1.354789    -1.076708    -0.703737     0.022205     0.056279

           1.2          2.2          3.2          4.2          5.2
     -8.108205    -0.582884    -0.435580     0.084044     0.121672

           1.3          2.3          3.3          4.3          5.3
     -8.108205    -0.582884    -0.435580     0.084044     0.121672

           1.4          2.4
      0.206472     0.292187


 HOMO      3.3    -0.435580 =     -11.8527eV
 LUMO      8.1     0.022205 =       0.6042eV
 LUMO-HOMO         0.457785 =      12.4570eV

 Orbitals saved in record  2100.2


 **********************************************************************************************************************************
 DATASETS  * FILE   NREC   LENGTH (MB)   RECORD NAMES
              1      19      932.50       500      610      700      900      950      970     1000      129      960     1100   
                                          VAR    BASINP    GEOM    SYMINP    ZMAT    AOBASIS   BASIS     P2S    ABASIS      S 
                                         1400     1410     1200     1210     1080     1600     1650     1300     1700   
                                           T        V       H0       H01     AOSYM     SMH    MOLCAS    ERIS     OPER   

              2       4        0.74       700     1000      520     2100   
                                         GEOM     BASIS   MCVARS     RHF  

 PROGRAMS   *        TOTAL    HF-SCF       INT
 CPU TIMES  *       200.97     27.90    172.94
 REAL TIME  *        54.61 SEC
 DISK USED  *         2.62 GB
 **********************************************************************************************************************************

 INPUT ERROR: INVALID KEY=OCCUPATION
 VALID KEYS:    BASIS         DISTANCE      ANGLES        ORBITAL       CIVECTOR      PAIRS         CP            CS        
                REF           PSPACE        MICRO         CPU           IO            VARIABLE      OPTIONS       THRESHOL  
                ZMATRIX       MPPERR        OPERATOR      DISK          EXTENSIONS    TEST          DOMAINS       TASKS     
                ORBEN     

 GLOBAL ERROR fehler on processor   0                                         
