
 Working directory              : /tmp/asmola/molpro.1R6yayQVZC/
 Global scratch directory       : /tmp/asmola/molpro.1R6yayQVZC/
 Wavefunction directory         : /home/asmola/wfu/
 Main file repository           : /tmp/asmola/molpro.1R6yayQVZC/

 id        : uclcc

 Nodes                        nprocs
 vincent.theory.phys.ucl.ac.uk    1
 GA implementation: MPI file
 GA implementation (serial work in mppx): MPI file

 Using customized tuning parameters: mindgm=1; mindgv=20; mindgc=4; mindgr=1; noblas=0; minvec=7
 default implementation of scratch files=df  


 Variables initialized (1015), CPU time= 0.01 sec
 ***,HOCl SR correction using second-order DKH approach
 memory,500,m;
 
 geometry={angstrom
 o
 h , 1, roh
 cl , 1, rocl, 2, alpha
 }
 
 roh = 0.96446195
 rocl = 1.68888476
 alpha = 103.0
 
 basis=aug-cc-pVQZ-f12
 hf
 frozen
 {ccsd(t)-f12,ri_basis=cc-pV5Z/jkfit,df_basis=aug-cc-pwCV5Z/mp2fit,gem_beta=1.4}
 
 E_pVQZ = ENERGY(2)
 
 basis=aug-cc-pCVQZ-f12
 hf
 {ccsd(t)-f12,ri_basis=cc-pV5Z/jkfit,df_basis=aug-cc-pwCV5Z/mp2fit,gem_beta=1.4}
 
 E_pCVQZ = ENERGY(2)
 
 E_CV = E_pCVQZ - E_pVQZ
 
                                                                                 ! Output the energy
 xxx = "mmm"
 point = 1
 text ### HOCl
 table,xxx,roh,rocl,alpha,E_CV,point
 DIGITS, 0, 8, 8, 8, 14, 12, 4
 Commands initialized (818), CPU time= 0.00 sec, 672 directives.
 Default parameters read. Elapsed time= 0.05 sec

 Checking input...
 Passed
1


                                         ***  PROGRAM SYSTEM MOLPRO  ***
                                       Copyright, TTI GmbH Stuttgart, 2015
                                    Version 2022.1 linked Mar  3 2022 23:20:00


 **********************************************************************************************************************************
 LABEL *   HOCl SR correction using second-order DKH approach                            
  (8 PROC) 64 bit serial version                                                         DATE: 19-Jul-25          TIME: 15:45:40  
 **********************************************************************************************************************************

 SHA1:             31073afc4d8441e10870424e0d77336a33bc4286
 **********************************************************************************************************************************

 Memory per process:       500 MW
 Total memory per node:    500 MW

 GA preallocation disabled
 GA check disabled

 Variable memory set to 500.0 MW

 SETTING ROH            =         0.96446195                                  
 SETTING ROCL           =         1.68888476                                  
 SETTING ALPHA          =       103.00000000                                  
 SETTING BASIS          =    AUG-CC-PVQZ-F12


 Recomputing integrals since basis changed


 Using spherical harmonics

 Library entry O      S cc-pVQZ-F12          selected for orbital group  1
 Library entry O      P cc-pVQZ-F12          selected for orbital group  1
 Library entry O      D cc-pVQZ-F12          selected for orbital group  1
 Library entry O      D vqz-f12-diff         selected for orbital group  1
 Library entry O      F cc-pVQZ-F12          selected for orbital group  1
 Library entry O      F vqz-f12-diff         selected for orbital group  1
 Library entry O      G cc-pVQZ-F12          selected for orbital group  1
 Library entry O      G vqz-f12-diff         selected for orbital group  1
 Library entry H      S cc-pVQZ-F12          selected for orbital group  2
 Library entry H      P cc-pVQZ-F12          selected for orbital group  2
 Library entry H      P vqz-f12-diff         selected for orbital group  2
 Library entry H      D cc-pVQZ-F12          selected for orbital group  2
 Library entry H      D vqz-f12-diff         selected for orbital group  2
 Library entry H      F cc-pVQZ-F12          selected for orbital group  2
 Library entry H      F vqz-f12-diff         selected for orbital group  2
 Library entry CL     S cc-pVQZ-F12          selected for orbital group  3
 Library entry CL     P cc-pVQZ-F12          selected for orbital group  3
 Library entry CL     D cc-pVQZ-F12          selected for orbital group  3
 Library entry CL     D vqz-f12-diff         selected for orbital group  3
 Library entry CL     F cc-pVQZ-F12          selected for orbital group  3
 Library entry CL     F vqz-f12-diff         selected for orbital group  3
 Library entry CL     G cc-pVQZ-F12          selected for orbital group  3
 Library entry CL     G vqz-f12-diff         selected for orbital group  3


 PROGRAM * SEWARD (Integral evaluation for generally contracted gaussian basis sets)     Author: Roland Lindh, 1990

 Geometry written to block  1 of record 700

 Orientation using atomic masses  
 Molecule type: Asymmetric top
 Symmetry elements: X
 Rotational constants:      14.7760974     15.1401499    614.5055928 GHz  (calculated with average atomic masses)

 Point group  Cs  



 ATOMIC COORDINATES

 NR  ATOM    CHARGE       X              Y              Z

   1  O       8.00    0.000000000    0.118821474   -2.145960667
   2  H       1.00    0.000000000   -1.639489684   -2.625647468
   3  CL     17.00    0.000000000   -0.007011115    1.043087417

 Bond lengths in Bohr (Angstrom)

 1-2  1.822568943  1-3  3.191529652
     ( 0.964461950)     ( 1.688884760)

 Bond angles

  2-1-3  103.00000000

 NUCLEAR CHARGE:                   26
 NUMBER OF PRIMITIVE AOS:         399
 NUMBER OF SYMMETRY AOS:          319
 NUMBER OF CONTRACTIONS:          274   (  172A'  +  102A"  )
 NUMBER OF INNER CORE ORBITALS:     1   (    1A'  +    0A"  )
 NUMBER OF OUTER CORE ORBITALS:     5   (    4A'  +    1A"  )
 NUMBER OF VALENCE ORBITALS:        9   (    7A'  +    2A"  )


 NUCLEAR REPULSION ENERGY   51.23575142


 Eigenvalues of metric

         1 0.277E-05 0.290E-05 0.142E-04 0.257E-04 0.462E-04 0.834E-04 0.105E-03 0.160E-03
         2 0.291E-05 0.181E-03 0.462E-03 0.611E-03 0.876E-03 0.215E-02 0.255E-02 0.416E-02


 Contracted 2-electron integrals neglected if value below      1.0D-12
 AO integral compression algorithm  1   Integral accuracy      1.0D-12

     1885.864 MB (compressed) written to integral file ( 52.9%)


 NUMBER OF SORTED TWO-ELECTRON INTEGRALS:  358946914.     BUFFER LENGTH:  32768
 NUMBER OF SEGMENTS:  23  SEGMENT LENGTH:   15999503      RECORD LENGTH: 524288

 Memory used in sort:      16.56 MW

 SORT1 READ   445837897. AND WROTE   335392583. INTEGRALS IN    969 RECORDS. CPU TIME:     3.75 SEC, REAL TIME:     5.14 SEC
 SORT2 READ   335392583. AND WROTE   358946914. INTEGRALS IN   7194 RECORDS. CPU TIME:     3.60 SEC, REAL TIME:     4.56 SEC

 FILE SIZES:   FILE 1:  1917.9 MBYTE,  FILE 4:  4064.3 MBYTE,   TOTAL:   5982.2 MBYTE

 OPERATOR DM      FOR CENTER  0  COORDINATES:    0.000000    0.000000    0.000000


 **********************************************************************************************************************************
 DATASETS  * FILE   NREC   LENGTH (MB)   RECORD NAMES
              1      19     1503.27       500      610      700      900      950      970     1000      129      960     1100   
                                          VAR    BASINP    GEOM    SYMINP    ZMAT    AOBASIS   BASIS     P2S    ABASIS      S 
                                         1400     1410     1200     1210     1080     1600     1650     1300     1700   
                                           T        V       H0       H01     AOSYM     SMH    MOLCAS    ERIS     OPER   

 PROGRAMS   *        TOTAL       INT
 CPU TIMES  *       206.42    206.32
 REAL TIME  *        52.54 SEC
 DISK USED  *         5.57 GB
 **********************************************************************************************************************************


 Program * Restricted Hartree-Fock

 Orbital guess generated from atomic densities. Full valence occupancy:   12   3

 Initial occupancy:  10   3

 NELEC=   26   SYM=1   MS2= 0   THRE=1.0D-08   THRD=3.2D-06   THRG=3.2D-06  HFMA2=F  DIIS_START=2   DIIS_MAX=10   DIIS_INCORE=F

 Level shifts:    0.00 (CLOSED)    0.00 (OPEN)    0.30 (GAP_MIN)

 ITER           ETOT              DE          GRAD        DDIFF     DIIS  NEXP   TIME(IT)  TIME(TOT)  DIAG
   1     -534.90826100    -534.90826100     0.00D+00     0.50D-01     0     0      17.25     37.90    start
   2     -534.93189138      -0.02363038     0.41D-02     0.28D-02     1     0      16.88     54.78    diag
   3     -534.93405195      -0.00216057     0.14D-02     0.72D-03     2     0      17.50     72.28    diag
   4     -534.93433146      -0.00027951     0.38D-03     0.29D-03     3     0      16.31     88.59    diag
   5     -534.93438648      -0.00005502     0.16D-03     0.10D-03     4     0      16.87    105.46    diag
   6     -534.93439361      -0.00000713     0.49D-04     0.35D-04     5     0      16.80    122.26    diag
   7     -534.93439458      -0.00000097     0.13D-04     0.16D-04     6     0      17.97    140.23    diag
   8     -534.93439471      -0.00000013     0.46D-05     0.75D-05     7     0      17.45    157.68    fixocc
   9     -534.93439472      -0.00000001     0.14D-05     0.22D-05     8     0      16.81    174.49    diag
  10     -534.93439472      -0.00000000     0.32D-06     0.32D-06     0     0      26.37    200.86    diag/orth

 Final occupancy:  10   3

 !RHF STATE 1.1 Energy               -534.934394720392
  RHF One-electron energy            -840.947001945276
  RHF Two-electron energy             254.776855801647
  RHF Kinetic energy                  534.814796349373
  RHF Nuclear energy                   51.235751423237
  RHF Virial quotient                  -1.000223625771

 !RHF STATE 1.1 Dipole moment           0.00000000    -0.62133613    -0.13460899
 Dipole moment /Debye                   0.00000000    -1.57927891    -0.34214192

 Orbital energies:

           1.1          2.1          3.1          4.1          5.1          6.1          7.1          8.1          9.1         10.1
   -104.889825   -20.640465   -10.610186    -8.077127    -8.074967    -1.413281    -1.061310    -0.722213    -0.605184    -0.468530

          11.1         12.1
      0.038460     0.059862

           1.2          2.2          3.2          4.2          5.2
     -8.074824    -0.614473    -0.444246     0.084169     0.123790


 HOMO      3.2    -0.444246 =     -12.0885eV
 LUMO     11.1     0.038460 =       1.0466eV
 LUMO-HOMO         0.482706 =      13.1351eV

 Orbitals saved in record  2100.2


 **********************************************************************************************************************************
 DATASETS  * FILE   NREC   LENGTH (MB)   RECORD NAMES
              1      19     1503.27       500      610      700      900      950      970     1000      129      960     1100   
                                          VAR    BASINP    GEOM    SYMINP    ZMAT    AOBASIS   BASIS     P2S    ABASIS      S 
                                         1400     1410     1200     1210     1080     1600     1650     1300     1700   
                                           T        V       H0       H01     AOSYM     SMH    MOLCAS    ERIS     OPER   

              2       4        1.02       700     1000      520     2100   
                                         GEOM     BASIS   MCVARS     RHF  

 PROGRAMS   *        TOTAL    HF-SCF       INT
 CPU TIMES  *       407.31    200.88    206.32
 REAL TIME  *        82.43 SEC
 DISK USED  *         5.57 GB
 **********************************************************************************************************************************


 PROGRAM * CCSD (Closed-shell coupled cluster)     Authors: C. Hampel, H.-J. Werner, 1991, M. Deegan, P.J. Knowles, 1992

                                  CCSD-F12 implementation by  H.-J. Werner, 2007

                   Density fitting integral evaluation by F.R. Manby, 2003,2007, G. Knizia, 2010


 Basis set VQZ-F12/JKFIT generated.      Number of basis functions:   402 
 Basis set V5Z/JKFIT generated.          Number of basis functions:   410 
 Basis set AUG-CC-PWCV5Z/MP2FIT generated. Number of basis functions:   866 

 Convergence thresholds:  THRVAR = 1.00D-08  THRDEN = 1.00D-06

 CCSD(T)     terms to be evaluated (factor= 1.000)


 Number of core orbitals:           6 (   5   1 )
 Number of closed-shell orbitals:   7 (   5   2 )
 Number of external orbitals:     261 ( 162  99 )

 Molecular orbitals read from record     2100.2  Type=RHF/CANONICAL  

 MP2-F12 correlation treatment (H.-J. Werner, 2006)
 ==================================================

 Using MP2-F12 with ansatz 3C(FIX)

 Using projected zeroth-order Hamiltonian (+Z)

 FOCKRIB=T FOCKRIC=T FOCKRIP=T CABSP=T CABSA=T CABSK=T CABSF=T GBC=F EBC=F DMAT=T NOFIK=T NOPAO=1 SOLVE=-1  USEPAO=0
 EXCH_A= T EXCH_B= F EXCH_C= F EXCH_P= F

 Geminal basis:    OPTFULL  GEM_TYPE=SLATER  BETA=1.4  NGEM=6

 Optimizing Gaussian exponents for each gem_beta

 Geminal optimization for beta= 1.4000
 Weight function:   m=0, omega= 1.8329

 Augmented Hessian optimization of geminal fit. Trust ratio= 0.40000
 Convergence reached after   2 iterations. Final gradient= 5.75D-17, Step= 7.43D-07, Delta= 1.11D-09

 Alpha:                 0.32335     1.22090     4.06503    13.28654    49.65231   274.64957
 Coeff:                 0.21345     0.30057     0.20316     0.12774     0.08045     0.05014


 Symmetry turned off. Reference energy:       -534.934394720393

 All pairs explicitly correlated. Number of r12-pairs:           28

 Excluding core orbitals from MO domains

 AO(A)-basis ORBITAL           loaded. Number of functions:     274
 RI(R)-basis V5Z/JKFIT         loaded. Number of functions:     410
 DF-basis VQZ-F12/JKFIT        loaded. Number of functions:     402

 Screening thresholds:   THRAO=  1.00D-10  THRMO=  1.00D-09  THRPROD=  1.00D-09
                         THRSW=  1.00D-05  THROV=  1.00D-12  THRAOF12= 1.00D-08

 CPU time for Fock operators                     16.74 sec

 Construction of ABS:
 Smallest eigenvalue of S          9.06E-05  (threshold= 1.00E-08)
 Ratio eigmin/eigmax               1.54E-05  (threshold= 1.00E-09)
 Smallest eigenvalue of S kept     9.06E-05  (threshold= 9.06E-05, 0 functions deleted, 410 kept)

 Construction of CABS:
 Smallest eigenvalue of S          2.85E-09  (threshold= 1.00E-08)
 Ratio eigmin/eigmax               2.85E-09  (threshold= 1.00E-09)
 Smallest eigenvalue of S kept     1.49E-08  (threshold= 1.49E-08, 2 functions deleted, 408 kept)

 CPU time for CABS singles                        0.35 sec

 CABS-singles contribution of  -0.00015751 patched into reference energy.
 New reference energy        -534.93455223

 AO(A)-basis ORBITAL           loaded. Number of functions:     274
 RI(R)-basis V5Z/JKFIT         loaded. Number of functions:     410
 DF-basis AUG-CC-PWCV5Z/MP2FIT loaded. Number of functions:     866

 Screening thresholds:   THRAO=  1.00D-10  THRMO=  1.00D-09  THRPROD=  1.00D-09
                         THRSW=  1.00D-05  THROV=  1.00D-12  THRAOF12= 1.00D-08

 CPU time for 3-index integral evaluation        25.88 sec
 CPU time for first  half transformation          9.44 sec ( 1252.1 MFLOP/sec)
 CPU time for second half transformation          0.37 sec (  817.0 MFLOP/sec)
 CPU time for sorting                             0.10 sec
 CPU time for fitting                             0.46 sec (16502.3 MFLOP/sec)
 CPU time for tilde quantities                    0.75 sec (13775.2 MFLOP/sec)
 CPU time for assembly                            3.30 sec (16399.8 MFLOP/sec)
 CPU time for tranop_f12                          4.70 sec ( 9606.9 MFLOP/sec)
 CPU time for f12 integrals (total)              56.76 sec, Elapsed time:     25.06 sec
 CPU time for f12 matrices (total)                1.89 sec, Elapsed time:      0.28 sec

 Diagonal F12 approximation with fixed coefficients:  TSING= 0.500,  TTRIP= 0.250 (scaled by -1/beta)

 DF-MP2-F12 energy corrections:
 ==============================
 Approx.                                    Singlet             Triplet             Total
 DF-MP2-F12/3*C(DX,FIX)                -0.023983589286     -0.001762953999     -0.025746543285
 DF-MP2-F12/3*C(FIX)                   -0.025480917201     -0.001936357971     -0.027417275172
 DF-MP2-F12/3C(FIX)                    -0.025366351676     -0.001945144014     -0.027311495690

 DF-MP2-F12 correlation energies:
 ================================
 Approx.                                    Singlet             Triplet             Ecorr            Total Energy
 DF-MP2                                -0.312111870868     -0.173463900113     -0.485575770981   -535.420128004204
 DF-MP2-F12/3*C(DX,FIX)                -0.336095460154     -0.175226854112     -0.511322314266   -535.445874547489
 DF-MP2-F12/3*C(FIX)                   -0.337592788069     -0.175400258084     -0.512993046153   -535.447545279376
 DF-MP2-F12/3C(FIX)                    -0.337478222544     -0.175409044127     -0.512887266671   -535.447439499894

 SCS-DF-MP2 energies (F_SING= 1.20000  F_TRIP= 0.62222  F_PARALLEL= 0.33333):
 ============================================================================
 SCS-DF-MP2                            -0.482467338445   -535.417019571669
 SCS-DF-MP2-F12/3*C(DX,FIX)            -0.512344594743   -535.446896827966
 SCS-DF-MP2-F12/3*C(FIX)               -0.514249284046   -535.448801517269
 SCS-DF-MP2-F12/3C(FIX)                -0.514117272288   -535.448669505511

 Symmetry restored.
 Symmetry transformation completed.

 Number of N-1 electron functions:               7
 Number of N-2 electron functions:              28
 Number of singly external CSFs:              1008
 Number of doubly external CSFs:            844326
 Total number of CSFs:                      845335

 Length of J-op  integral file:             212.15 MB
 Length of K-op  integral file:             281.93 MB
 Length of 3-ext integral record:             0.00 MB

 Memory could be reduced to 87.50 Mwords without degradation in triples

 Integral transformation finished. Total CPU:  65.80 sec, npass=  1  Memory used:  26.91 MW

 Reference energy:                   -534.93455223

 Adding F12 terms to K(Cij), methodcc=6,  factor= 1.0

 ITER.      SQ.NORM     CORR.ENERGY   TOTAL ENERGY   ENERGY CHANGE        DEN1      VAR(S)    VAR(P)  DIIS     TIME  TIME/IT
   1      1.13910222    -0.49381798  -535.42837021    -0.00823620     0.00473533  0.19D-02  0.25D-02  1  1   189.16     6.14
   2      1.14863631    -0.49435257  -535.42890481    -0.00053459    -0.01059602  0.46D-04  0.34D-03  2  2   242.25     6.57
   3      1.15229860    -0.49447856  -535.42903079    -0.00012598    -0.00204388  0.27D-04  0.26D-04  3  3   287.54     6.38
   4      1.15400375    -0.49447148  -535.42902371     0.00000708    -0.00089921  0.19D-05  0.30D-05  4  4   328.32     6.11
   5      1.15437770    -0.49447443  -535.42902666    -0.00000295    -0.00007312  0.54D-06  0.30D-06  5  5   376.12     6.14
   6      1.15447779    -0.49447033  -535.42902256     0.00000410    -0.00000663  0.11D-06  0.51D-07  6  6   423.47     6.14
   7      1.15450651    -0.49446933  -535.42902156     0.00000100    -0.00000416  0.27D-07  0.72D-08  6  1   460.79     5.96
   8      1.15451285    -0.49446944  -535.42902167    -0.00000011     0.00000045  0.73D-08  0.17D-08  6  3   493.08     5.73
   9      1.15451686    -0.49446927  -535.42902151     0.00000016    -0.00000102  0.21D-08  0.49D-09  6  2   525.31     5.56

 Norm of t1 vector:      0.05892446      S-energy:     0.00000011      T1 diagnostic:  0.01113568
                                                                       D1 diagnostic:  0.02368109
                                                                       D2 diagnostic:  0.16963519 (external, symmetry=1)

 Adding energy correction from Wij-K(Fij), methodcc=6  factor= 1.0

  CCSD correlation energy              -0.494469273123
  MP2-F12 correction (uncoupled)       -0.026779380928
  C*T doubles correction               -0.000546138078
  f12b correction                       0.005294782371


 Total CPU time for triples:     82.84 sec


 RESULTS
 =======

  Reference energy                   -534.934394720393
  F12 singles correction               -0.000157512831

 F12 singles corrections added to reference energy

  New reference energy               -534.934552233223

  F12a singlet correction              -0.025386850815
  F12a triplet correction              -0.001938668192
  F12a total correction                -0.027325519007

 F12a corrections for ansatz F12/3C(FIX) added to CCSD energy

  CCSD-F12a singlet pair energy        -0.363161625905
  CCSD-F12a triplet pair energy        -0.158633273948
  CCSD-F12a correlation energy         -0.521794792129

  Triples (T) contribution             -0.021910021953
  Total correlation energy             -0.543704814083

  CCSD-F12a total energy             -535.456347025353
  CCSD[T]-F12a energy                -535.478823273788
  CCSD-T-F12a energy                 -535.478015539000
 !CCSD(T)-F12a total energy          -535.478257047306

 F12b corrections for ansatz F12/3C(FIX) added to CCSD(T)-F12a energy

  CCSD-F12b singlet pair energy        -0.358111097902
  CCSD-F12b triplet pair energy        -0.158389019581
  CCSD-F12b correlation energy         -0.516500009758

  Triples (T) contribution             -0.021910021953
  Total correlation energy             -0.538410031712

  CCSD-F12b total energy             -535.451052242982
  CCSD[T]-F12b energy                -535.473528491417
  CCSD-T-F12b energy                 -535.472720756629
 !CCSD(T)-F12b total energy          -535.472962264935

 Timing summary (sec):

 STEP                 CPU(USER)    SYS     CPU(TOT)    WALL
 Transformation         66.20      0.83     67.03      9.52
 CCSD iterations       382.39      4.22    386.61     50.07
 Triples                82.84      1.06     83.90     18.65
 MP2-F12                76.83      1.09     77.92     37.44
 F12b energy            29.38      0.32     29.70      3.78

 Program statistics:

 Available memory in ccsd:               499999654
 Min. memory needed in ccsd:               2702012
 Max. memory used in ccsd:                 3402474
 Max. memory used in cckext:               5507995 (10 integral passes)



 **********************************************************************************************************************************
 DATASETS  * FILE   NREC   LENGTH (MB)   RECORD NAMES
              1      20     1755.99       500      610      700      900      950      970     1000      129      960     1100   
                                          VAR    BASINP    GEOM    SYMINP    ZMAT    AOBASIS   BASIS     P2S    ABASIS      S 
                                         1400     1410     1200     1210     1080     1600     1650     1300     1700     1380   
                                           T        V       H0       H01     AOSYM     SMH    MOLCAS    ERIS     OPER     JKOP   

              2       6        1.49       700     1000      520     2100     7360     7350   
                                         GEOM     BASIS   MCVARS     RHF    F12ABS    EF12   

 PROGRAMS   *        TOTAL   CCSD(T)    HF-SCF       INT
 CPU TIMES  *      1044.99    637.67    200.88    206.32
 REAL TIME  *       201.97 SEC
 DISK USED  *         5.57 GB
 **********************************************************************************************************************************
 SETTING E_PVQZ         =      -535.47296226  AU                              
 SETTING BASIS          =    AUG-CC-PCVQZ-F12


 Recomputing integrals since basis changed


 Using spherical harmonics

 Library entry O      S cc-pCVQZ-F12         selected for orbital group  1
 Library entry O      P cc-pCVQZ-F12         selected for orbital group  1
 Library entry O      D cc-pCVQZ-F12         selected for orbital group  1
 Library entry O      D vqz-f12-diff         selected for orbital group  1
 Library entry O      F cc-pCVQZ-F12         selected for orbital group  1
 Library entry O      F vqz-f12-diff         selected for orbital group  1
 Library entry O      G cc-pCVQZ-F12         selected for orbital group  1
 Library entry O      G vqz-f12-diff         selected for orbital group  1
 Library entry H      S cc-pVQZ-F12          selected for orbital group  2
 Library entry H      P cc-pVQZ-F12          selected for orbital group  2
 Library entry H      P vqz-f12-diff         selected for orbital group  2
 Library entry H      D cc-pVQZ-F12          selected for orbital group  2
 Library entry H      D vqz-f12-diff         selected for orbital group  2
 Library entry H      F cc-pVQZ-F12          selected for orbital group  2
 Library entry H      F vqz-f12-diff         selected for orbital group  2
 Library entry CL     S cc-pCVQZ-F12         selected for orbital group  3
 Library entry CL     P cc-pCVQZ-F12         selected for orbital group  3
 Library entry CL     D cc-pCVQZ-F12         selected for orbital group  3
 Library entry CL     D vqz-f12-diff         selected for orbital group  3
 Library entry CL     F cc-pCVQZ-F12         selected for orbital group  3
 Library entry CL     F vqz-f12-diff         selected for orbital group  3
 Library entry CL     G cc-pCVQZ-F12         selected for orbital group  3
 Library entry CL     G vqz-f12-diff         selected for orbital group  3


 PROGRAM * SEWARD (Integral evaluation for generally contracted gaussian basis sets)     Author: Roland Lindh, 1990

 Geometry written to block  1 of record 700

 Orientation using atomic masses  
 Molecule type: Asymmetric top
 Symmetry elements: X
 Rotational constants:      14.7760974     15.1401499    614.5055928 GHz  (calculated with average atomic masses)

 Point group  Cs  



 ATOMIC COORDINATES

 NR  ATOM    CHARGE       X              Y              Z

   1  O       8.00    0.000000000    0.118821474   -2.145960667
   2  H       1.00    0.000000000   -1.639489684   -2.625647468
   3  CL     17.00    0.000000000   -0.007011115    1.043087417

 Bond lengths in Bohr (Angstrom)

 1-2  1.822568943  1-3  3.191529652
     ( 0.964461950)     ( 1.688884760)

 Bond angles

  2-1-3  103.00000000

 NUCLEAR CHARGE:                   26
 NUMBER OF PRIMITIVE AOS:         429
 NUMBER OF SYMMETRY AOS:          344
 NUMBER OF CONTRACTIONS:          299   (  188A'  +  111A"  )
 NUMBER OF INNER CORE ORBITALS:     1   (    1A'  +    0A"  )
 NUMBER OF OUTER CORE ORBITALS:     5   (    4A'  +    1A"  )
 NUMBER OF VALENCE ORBITALS:        9   (    7A'  +    2A"  )


 NUCLEAR REPULSION ENERGY   51.23575142


 Eigenvalues of metric

         1 0.175E-05 0.176E-05 0.695E-05 0.142E-04 0.168E-04 0.179E-04 0.230E-04 0.471E-04
         2 0.176E-05 0.170E-04 0.188E-03 0.595E-03 0.856E-03 0.212E-02 0.254E-02 0.406E-02


 Contracted 2-electron integrals neglected if value below      1.0D-12
 AO integral compression algorithm  1   Integral accuracy      1.0D-12

     2432.172 MB (compressed) written to integral file ( 47.9%)


 NUMBER OF SORTED TWO-ELECTRON INTEGRALS:  508447065.     BUFFER LENGTH:  32768
 NUMBER OF SEGMENTS:  32  SEGMENT LENGTH:   15999503      RECORD LENGTH: 262144

 Memory used in sort:      16.29 MW

 SORT1 READ   635147888. AND WROTE   452263356. INTEGRALS IN   2606 RECORDS. CPU TIME:     5.41 SEC, REAL TIME:     7.34 SEC
 SORT2 READ   452263356. AND WROTE   508447065. INTEGRALS IN   9278 RECORDS. CPU TIME:     5.06 SEC, REAL TIME:     6.41 SEC

 FILE SIZES:   FILE 1:  2464.6 MBYTE,  FILE 4:  5465.2 MBYTE,   TOTAL:   7929.8 MBYTE

 OPERATOR DM      FOR CENTER  0  COORDINATES:    0.000000    0.000000    0.000000


 **********************************************************************************************************************************
 DATASETS  * FILE   NREC   LENGTH (MB)   RECORD NAMES
              1      19     1926.21       500      610      700      900      950      970     1001      129      960     1100   
                                          VAR    BASINP    GEOM    SYMINP    ZMAT    AOBASIS   BASIS     P2S    ABASIS      S 
                                         1400     1410     1200     1210     1080     1600     1650     1300     1700   
                                           T        V       H0       H01     AOSYM     SMH    MOLCAS    ERIS     OPER   

              2       7        1.55       700     1000      520     2100     7360     7350     1001   
                                         GEOM     BASIS   MCVARS     RHF    F12ABS    EF12     BASIS   

 PROGRAMS   *        TOTAL       INT   CCSD(T)    HF-SCF       INT
 CPU TIMES  *      1285.11    240.12    637.67    200.88    206.32
 REAL TIME  *       265.88 SEC
 DISK USED  *         7.39 GB
 **********************************************************************************************************************************


 Program * Restricted Hartree-Fock

 Molecular orbitals read from record     2100.2  Type=RHF/CANONICAL  

 Present basis size:      188  111
 Previous basis size:     172  102
 Previous occupation:      10    3
 Previous closed-shells:   10    3
 Previous core-orbitals:    5    1
 Present occupation:       10    3
 Present closed-shells:    10    3
 Present core-orbitals:     5    1
 Wavefunction symmetry:    1   Singlet 

 Orbital overlap <old|new>:  < 1.1| 1.1> = 1.000000   < 2.1| 2.1> = 1.000000   < 3.1| 3.1> = 1.000000   < 4.1| 4.1> = 1.000000
                             < 5.1| 5.1> = 1.000000   < 1.2| 1.2> = 1.000000   < 6.1| 6.1> = 1.000000   < 7.1| 7.1> = 1.000000
                             < 8.1| 8.1> = 1.000000   < 9.1| 9.1> = 1.000000   <10.1|10.1> = 1.000000   < 2.2| 2.2> = 1.000000
                             < 3.2| 3.2> = 1.000000


 Initial occupancy:  10   3

 NELEC=   26   SYM=1   MS2= 0   THRE=1.0D-08   THRD=3.2D-06   THRG=3.2D-06  HFMA2=F  DIIS_START=2   DIIS_MAX=10   DIIS_INCORE=F

 Level shifts:    0.00 (CLOSED)    0.00 (OPEN)    0.30 (GAP_MIN)

 ITER           ETOT              DE          GRAD        DDIFF     DIIS  NEXP   TIME(IT)  TIME(TOT)  DIAG
   1     -534.93439472    -534.93439472     0.00D+00     0.46D-01     0     0      23.65     23.85    start
   2     -534.93440421      -0.00000949     0.53D-03     0.31D-03     1     0      23.98     47.83    diag
   3     -534.93440421      -0.00000000     0.63D-05     0.71D-05     2     0      23.99     71.82    diag
   4     -534.93440421      -0.00000000     0.23D-06     0.33D-06     3     0      23.87     95.69    diag
   5     -534.93440421      -0.00000000     0.44D-07     0.44D-07     0     0      24.97    120.66    diag

 Final occupancy:  10   3

 !RHF STATE 1.1 Energy               -534.934404211240
  RHF One-electron energy            -840.947113291542
  RHF Two-electron energy             254.776957657066
  RHF Kinetic energy                  534.816243559700
  RHF Nuclear energy                   51.235751423237
  RHF Virial quotient                  -1.000220936916

 !RHF STATE 1.1 Dipole moment           0.00000000    -0.62133373    -0.13457741
 Dipole moment /Debye                   0.00000000    -1.57927281    -0.34206167

 Orbital energies:

           1.1          2.1          3.1          4.1          5.1          6.1          7.1          8.1          9.1         10.1
   -104.889811   -20.640456   -10.610185    -8.077081    -8.074987    -1.413277    -1.061310    -0.722211    -0.605186    -0.468532

          11.1         12.1
      0.038459     0.059857

           1.2          2.2          3.2          4.2          5.2
     -8.074845    -0.614470    -0.444246     0.084169     0.123789


 HOMO      3.2    -0.444246 =     -12.0886eV
 LUMO     11.1     0.038459 =       1.0465eV
 LUMO-HOMO         0.482706 =      13.1351eV

 Orbitals saved in record  2101.2


 **********************************************************************************************************************************
 DATASETS  * FILE   NREC   LENGTH (MB)   RECORD NAMES
              1      19     1926.21       500      610      700      900      950      970     1001      129      960     1100   
                                          VAR    BASINP    GEOM    SYMINP    ZMAT    AOBASIS   BASIS     P2S    ABASIS      S 
                                         1400     1410     1200     1210     1080     1600     1650     1300     1700   
                                           T        V       H0       H01     AOSYM     SMH    MOLCAS    ERIS     OPER   

              2       8        2.38       700     1000      520     2100     7360     7350     1001     2101   
                                         GEOM     BASIS   MCVARS     RHF    F12ABS    EF12     BASIS     RHF  

 PROGRAMS   *        TOTAL    HF-SCF       INT   CCSD(T)    HF-SCF       INT
 CPU TIMES  *      1405.82    120.70    240.12    637.67    200.88    206.32
 REAL TIME  *       283.23 SEC
 DISK USED  *         7.39 GB
 **********************************************************************************************************************************


 PROGRAM * CCSD (Closed-shell coupled cluster)     Authors: C. Hampel, H.-J. Werner, 1991, M. Deegan, P.J. Knowles, 1992

                                  CCSD-F12 implementation by  H.-J. Werner, 2007

                   Density fitting integral evaluation by F.R. Manby, 2003,2007, G. Knizia, 2010



 Convergence thresholds:  THRVAR = 1.00D-08  THRDEN = 1.00D-06

 CCSD(T)     terms to be evaluated (factor= 1.000)


 Number of core orbitals:           6 (   5   1 )
 Number of closed-shell orbitals:   7 (   5   2 )
 Number of external orbitals:     286 ( 178 108 )

 Molecular orbitals read from record     2101.2  Type=RHF/CANONICAL (state 1.1)

 MP2-F12 correlation treatment (H.-J. Werner, 2006)
 ==================================================

 Using MP2-F12 with ansatz 3C(FIX)

 Using projected zeroth-order Hamiltonian (+Z)

 FOCKRIB=T FOCKRIC=T FOCKRIP=T CABSP=T CABSA=T CABSK=T CABSF=T GBC=F EBC=F DMAT=T NOFIK=T NOPAO=1 SOLVE=-1  USEPAO=0
 EXCH_A= T EXCH_B= F EXCH_C= F EXCH_P= F

 Geminal basis:    OPTFULL  GEM_TYPE=SLATER  BETA=1.4  NGEM=6

 Optimizing Gaussian exponents for each gem_beta

 Geminal optimization for beta= 1.4000
 Weight function:   m=0, omega= 1.8329

 Augmented Hessian optimization of geminal fit. Trust ratio= 0.40000
 Convergence reached after   2 iterations. Final gradient= 5.75D-17, Step= 7.43D-07, Delta= 1.11D-09

 Alpha:                 0.32335     1.22090     4.06503    13.28654    49.65231   274.64957
 Coeff:                 0.21345     0.30057     0.20316     0.12774     0.08045     0.05014


 Symmetry turned off. Reference energy:       -534.934404211240

 All pairs explicitly correlated. Number of r12-pairs:           28

 Excluding core orbitals from MO domains

 AO(A)-basis ORBITAL           loaded. Number of functions:     299
 RI(R)-basis V5Z/JKFIT         loaded. Number of functions:     410
 DF-basis VQZ-F12/JKFIT        loaded. Number of functions:     402

 Screening thresholds:   THRAO=  1.00D-10  THRMO=  1.00D-09  THRPROD=  1.00D-09
                         THRSW=  1.00D-05  THROV=  1.00D-12  THRAOF12= 1.00D-08

 CPU time for Fock operators                     13.94 sec

 Construction of ABS:
 Smallest eigenvalue of S          9.06E-05  (threshold= 1.00E-08)
 Ratio eigmin/eigmax               1.54E-05  (threshold= 1.00E-09)
 Smallest eigenvalue of S kept     9.06E-05  (threshold= 9.06E-05, 0 functions deleted, 410 kept)

 Construction of CABS:
 Smallest eigenvalue of S          2.16E-09  (threshold= 1.00E-08)
 Ratio eigmin/eigmax               2.16E-09  (threshold= 1.00E-09)
 Smallest eigenvalue of S kept     1.38E-08  (threshold= 1.38E-08, 2 functions deleted, 408 kept)

 CPU time for CABS singles                        0.28 sec

 CABS-singles contribution of  -0.00015120 patched into reference energy.
 New reference energy        -534.93455541

 AO(A)-basis ORBITAL           loaded. Number of functions:     299
 RI(R)-basis V5Z/JKFIT         loaded. Number of functions:     410
 DF-basis AUG-CC-PWCV5Z/MP2FIT loaded. Number of functions:     866

 Screening thresholds:   THRAO=  1.00D-10  THRMO=  1.00D-09  THRPROD=  1.00D-09
                         THRSW=  1.00D-05  THROV=  1.00D-12  THRAOF12= 1.00D-08

 CPU time for 3-index integral evaluation        33.44 sec
 CPU time for first  half transformation          5.31 sec ( 2548.5 MFLOP/sec)
 CPU time for second half transformation          0.39 sec (  845.9 MFLOP/sec)
 CPU time for sorting                             0.12 sec
 CPU time for fitting                             0.43 sec (18264.0 MFLOP/sec)
 CPU time for tilde quantities                    0.57 sec (19046.3 MFLOP/sec)
 CPU time for assembly                            2.42 sec (24517.7 MFLOP/sec)
 CPU time for tranop_f12                          3.99 sec (13003.7 MFLOP/sec)
 CPU time for f12 integrals (total)              55.92 sec, Elapsed time:     19.95 sec
 CPU time for f12 matrices (total)                1.11 sec, Elapsed time:      0.17 sec

 Diagonal F12 approximation with fixed coefficients:  TSING= 0.500,  TTRIP= 0.250 (scaled by -1/beta)

 DF-MP2-F12 energy corrections:
 ==============================
 Approx.                                    Singlet             Triplet             Total
 DF-MP2-F12/3*C(DX,FIX)                -0.023620128035     -0.001649018101     -0.025269146136
 DF-MP2-F12/3*C(FIX)                   -0.025321471111     -0.001877149240     -0.027198620351
 DF-MP2-F12/3C(FIX)                    -0.025222779941     -0.001871151140     -0.027093931081

 DF-MP2-F12 correlation energies:
 ================================
 Approx.                                    Singlet             Triplet             Ecorr            Total Energy
 DF-MP2                                -0.312380334976     -0.173570941079     -0.485951276055   -535.420506689938
 DF-MP2-F12/3*C(DX,FIX)                -0.336000463012     -0.175219959180     -0.511220422191   -535.445775836074
 DF-MP2-F12/3*C(FIX)                   -0.337701806087     -0.175448090319     -0.513149896406   -535.447705310288
 DF-MP2-F12/3C(FIX)                    -0.337603114918     -0.175442092219     -0.513045207137   -535.447600621019

 SCS-DF-MP2 energies (F_SING= 1.20000  F_TRIP= 0.62222  F_PARALLEL= 0.33333):
 ============================================================================
 SCS-DF-MP2                            -0.482856098643   -535.417411512525
 SCS-DF-MP2-F12/3*C(DX,FIX)            -0.512226307992   -535.446781721875
 SCS-DF-MP2-F12/3*C(FIX)               -0.514409867947   -535.448965281830
 SCS-DF-MP2-F12/3C(FIX)                -0.514287706393   -535.448843120275

 Symmetry restored.
 Symmetry transformation completed.

 Number of N-1 electron functions:               7
 Number of N-2 electron functions:              28
 Number of singly external CSFs:              1106
 Number of doubly external CSFs:           1014027
 Total number of CSFs:                     1015134

 Length of J-op  integral file:             235.55 MB
 Length of K-op  integral file:             318.00 MB
 Length of 3-ext integral record:             0.00 MB

 Memory could be reduced to 114.88 Mwords without degradation in triples

 Integral transformation finished. Total CPU:  65.22 sec, npass=  1  Memory used:  34.76 MW

 Reference energy:                   -534.93455541

 Adding F12 terms to K(Cij), methodcc=6,  factor= 1.0

 ITER.      SQ.NORM     CORR.ENERGY   TOTAL ENERGY   ENERGY CHANGE        DEN1      VAR(S)    VAR(P)  DIIS     TIME  TIME/IT
   1      1.13911735    -0.49415659  -535.42871200    -0.00819929     0.00473731  0.19D-02  0.25D-02  1  1   187.33     6.38
   2      1.14863290    -0.49473288  -535.42928830    -0.00057630    -0.01058640  0.46D-04  0.34D-03  2  2   233.47     6.15
   3      1.15227205    -0.49486542  -535.42942083    -0.00013254    -0.00202871  0.27D-04  0.27D-04  3  3   277.85     6.00
   4      1.15401492    -0.49485300  -535.42940841     0.00001242    -0.00093291  0.20D-05  0.30D-05  4  4   322.36     5.93
   5      1.15439204    -0.49485633  -535.42941174    -0.00000333    -0.00007260  0.54D-06  0.30D-06  5  5   366.90     5.88
   6      1.15449285    -0.49485252  -535.42940793     0.00000381    -0.00000674  0.11D-06  0.51D-07  6  6   411.46     5.85
   7      1.15452183    -0.49485147  -535.42940688     0.00000105    -0.00000418  0.27D-07  0.72D-08  6  1   455.97     5.83
   8      1.15452828    -0.49485155  -535.42940696    -0.00000008     0.00000037  0.73D-08  0.17D-08  6  3   500.52     5.82
   9      1.15453221    -0.49485139  -535.42940681     0.00000015    -0.00000096  0.21D-08  0.49D-09  6  2   545.07     5.81

 Norm of t1 vector:      0.05888711      S-energy:     0.00000017      T1 diagnostic:  0.01112862
                                                                       D1 diagnostic:  0.02366921
                                                                       D2 diagnostic:  0.16963047 (external, symmetry=1)

 Adding energy correction from Wij-K(Fij), methodcc=6  factor= 1.0

  CCSD correlation energy              -0.494851393675
  MP2-F12 correction (uncoupled)       -0.026534079312
  C*T doubles correction               -0.000538735291
  f12b correction                       0.005235975477


 Total CPU time for triples:     93.05 sec


 RESULTS
 =======

  Reference energy                   -534.934404211240
  F12 singles correction               -0.000151202642

 F12 singles corrections added to reference energy

  New reference energy               -534.934555413882

  F12a singlet correction              -0.025203554244
  F12a triplet correction              -0.001869260359
  F12a total correction                -0.027072814603

 F12a corrections for ansatz F12/3C(FIX) added to CCSD energy

  CCSD-F12a singlet pair energy        -0.363267979528
  CCSD-F12a triplet pair energy        -0.158656394849
  CCSD-F12a correlation energy         -0.521924208278

  Triples (T) contribution             -0.021931730876
  Total correlation energy             -0.543855939154

  CCSD-F12a total energy             -535.456479622160
  CCSD[T]-F12a energy                -535.478977536657
  CCSD-T-F12a energy                 -535.478170048986
 !CCSD(T)-F12a total energy          -535.478411353036

 F12b corrections for ansatz F12/3C(FIX) added to CCSD(T)-F12a energy

  CCSD-F12b singlet pair energy        -0.358269192069
  CCSD-F12b triplet pair energy        -0.158419206831
  CCSD-F12b correlation energy         -0.516688232801

  Triples (T) contribution             -0.021931730876
  Total correlation energy             -0.538619963677

  CCSD-F12b total energy             -535.451243646683
  CCSD[T]-F12b energy                -535.473741561180
  CCSD-T-F12b energy                 -535.472934073509
 !CCSD(T)-F12b total energy          -535.473175377559

 Timing summary (sec):

 STEP                 CPU(USER)    SYS     CPU(TOT)    WALL
 Transformation         65.51      0.82     66.33      9.09
 CCSD iterations       407.82      3.99    411.81     52.31
 Triples                93.05      1.41     94.46     22.61
 MP2-F12                71.87      0.98     72.85     31.07
 F12b energy            40.89      0.36     41.25      5.22

 Program statistics:

 Available memory in ccsd:               499999644
 Min. memory needed in ccsd:               3237312
 Max. memory used in ccsd:                 4081365
 Max. memory used in cckext:               6889289 (10 integral passes)



 **********************************************************************************************************************************
 DATASETS  * FILE   NREC   LENGTH (MB)   RECORD NAMES
              1      20     2257.09       500      610      700      900      950      970     1001      129      960     1100   
                                          VAR    BASINP    GEOM    SYMINP    ZMAT    AOBASIS   BASIS     P2S    ABASIS      S 
                                         1400     1410     1200     1210     1080     1600     1650     1300     1700     1380   
                                           T        V       H0       H01     AOSYM     SMH    MOLCAS    ERIS     OPER     JKOP   

              2       9        2.93       700     1000      520     2100     7360     7350     1001     2101     7360(1)
                                         GEOM     BASIS   MCVARS     RHF    F12ABS    EF12     BASIS     RHF    F12ABS    

 PROGRAMS   *        TOTAL   CCSD(T)    HF-SCF       INT   CCSD(T)    HF-SCF       INT
 CPU TIMES  *      2085.00    679.17    120.70    240.12    637.67    200.88    206.32
 REAL TIME  *       403.63 SEC
 DISK USED  *         7.39 GB
 **********************************************************************************************************************************
 SETTING E_PCVQZ        =      -535.47317538  AU                              
 SETTING E_CV           =        -0.00021311  AU                              
 SETTING XXX            =    "MMM"
 SETTING POINT          =         1.00000000                                  

 *** ### HOCl


 XXX       ROH          ROCL           ALPHA         E_CV               POINT
 "MMM"   0.96446195   1.68888476   103.00000000   -0.00021311262424   1.000000000000
                                                  

 CCSD(T)-F12/aug-cc-pCVQZ-F12 energy=   -535.473175377559

     CCSD(T)-F12          HF-SCF     CCSD(T)-F12          HF-SCF
   -535.47317538   -534.93440421   -535.47296226   -534.93439472
 **********************************************************************************************************************************
 Molpro calculation terminated
