 --invoking executable--
/home/asmola/.local/bin/xjoda


   *************************************************************************
         <<<     CCCCCC     CCCCCC   |||     CCCCCC     CCCCCC   >>>
       <<<      CCC        CCC       |||    CCC        CCC         >>>
      <<<      CCC        CCC        |||   CCC        CCC            >>>
    <<<        CCC        CCC        |||   CCC        CCC              >>>
      <<<      CCC        CCC        |||   CCC        CCC            >>>
       <<<      CCC        CCC       |||    CCC        CCC         >>>
         <<<     CCCCCC     CCCCCC   |||     CCCCCC     CCCCCC   >>>
   *************************************************************************

     ****************************************************************
     * CFOUR Coupled-Cluster techniques for Computational Chemistry *
     ****************************************************************
 

   Department of Chemistry                Institut fuer Physikalische Chemie
   University of Florida                  Universitaet Mainz
   Gainesville, FL 32611, USA             D-55099 Mainz, Germany

   Department of Chemistry                Fakultaet fuer Chemie und Biowiss.
   Johns Hopkins University               Karlsruher Institut fuer Technologie
   Baltimore, MD 21218, USA               D-76131 Karlsruhe, Germany

   Department of Chemistry                Department of Physical Chemistry
   Southern Methodist University          Eotvos Lorand University
   Dallas, TX 75275, USA                  H-1053 Budapest, Hungary

 
                       Version 2.1
 
                     vincent.theory.phys.ucl.ac.uk                     
                     Fri 31 Jan 12:17:31 GMT 2025                      
                     integer*8 version is running
 
********************************************************************************
*                          Input from ZMAT file                                *
********************************************************************************
Hypochlorous acid DBOC calculation                                              
O                                                                               
H 1 ROH                                                                         
CL 1 ROCL 2 A                                                                   
                                                                                
ROH=2.1500000000000004                                                          
ROCL=1.683                                                                      
A=107.0                                                                         
                                                                                
                                                                                
*CFOUR(CALC=CCSD,BASIS=AUG-PCVTZ,SCF_CONV=10                                    
CC_CONV=10,DBOC=ON,MEMORY=500000000)                                            
********************************************************************************
  @GTFLGS-I, Hessian will be transformed to curvilinear coordinates.
    -------------------------------------------------------------------
                    CFOUR Control Parameters 
    -------------------------------------------------------------------
        External           Internal           Value            Units
          Name               Name
    -------------------------------------------------------------------
       ABCDTYPE             IABCDT         STANDARD    [  0]    ***   
       ANHARMONIC           IANHAR         OFF         [  0]    ***   
       ANH_ALGORIT          IANALG         STANDARD    [  0]    ***   
       ANH_DERIVAT          IANDER         SECOND      [  1]    ***   
       ANH_MODE             ANHMOD         VIBRATION   [  0]    ***   
       ANH_STEPSIZ          ICUBST             50000          x 10-6  
       ANH_SYMMETR          IANHSM         ABELIAN     [  0]    ***   
       AO_LADDERS           IAOLAD         SINGLEPASS  [  1]    ***   
       AV_SCF               IAVSCF         OFF         [  0]    ***   
       BASIS                IBASIS         AUG-PCVTZ   [ 51]    ***   
       BOTHVECTORS          BOTHVC         OFF         [  0]    ***   
       BOX_POTENT           IPIAB          OFF         [  0]    ***   
       BREIT                IBREIT         OFF         [  0]    ***   
       BRUCK_CONV           IBRTOL          10D-  4             ***   
       BRUECKNER            IBRKNR         OFF         [  0]    ***   
       BUFFERSIZE           IBUFFS              4096            ***   
       CACHE_RECS           ICHREC             10               ***   
       CALCLEVEL            ICLLVL         CCSD        [ 10]    ***   
       CCORBOPT             ICCORB         OFF         [  0]  x 0.01  
       CC_CONV              ICCCNV          10D- 10             ***   
       CC_EXPORDER          ICCEOR              5               ***   
       CC_EXTRAPOL          ICCEXT         DIIS        [  1]    ***   
       CC_GUESS             ICCGES         MP2         [  0]    ***   
       CC_MAXCYC            ICCCYC            100              cycles 
       CC_PROGRAM           ICCPRO         VCC         [  0]    ***   
       CHARGE               ICHRGE              0               ***   
       CHOLESKY             ICHOLE         OFF         [  0]    ***   
       CIS_CONV             ICISTL              5               ***   
       COMM_SIZE            IPSIZE            ***               ***   
       CONSTANT             ICONST         OLD         [  1]    ***   
       CONTINUUM            ICONTU         NONE        [  0]    ***   
       CONTRACTION          ICNTYP         GENERAL     [  1]    ***   
       COORDINATES          ICOORD         INTERNAL    [  0]    ***   
       CPHF_CONVER          ICPHFT          10D- 16             ***   
       CPHF_MAXCYC          ICPHFC             64              cycles 
       CUBIC                ICUBIC         OFF         [  0]    ***   
       CURVILINEAR          ICURVY         ON          [  1]    ***   
       DBOC                 IDBOC          ON          [  1]    ***   
       DCT                  IDCT           OFF         [  0]    ***   
       DERIV_LEV            IDRLVL         SECOND      [  2]    ***   
       DEVMEM_SIZE          IDVMEM          50000000           MByte  
       DIAG_MRCC            IEOMST          10D-  0             ***   
       DIFF_TYPE            IDIFTY         RELAXED     [  0]    ***   
       DIRECT               IDIRCT         OFF         [  0]    ***   
       DROPMO               IDRPMO      NONE         
       ECP                  IECP           OFF         [  0]    ***   
       EIGENVECTOR          IVEC                1               ***   
       EL_ANHARM            IELANH         OFF         [  0]    ***   
       EOMFOLLOW            IEOMSR         ENERGY      [  0]    ***   
       EOMIP                IEOMIP         OFF         [  0]    ***   
       EOMLEVEL             HBARFM         SAME        [  0]    ***   
       EOM_MRCC             IMRCCE         NEW         [  1]    ***   
       EOM_NONIT            EOMNON         OFF         [  0]    ***   
       EOM_NSING            IEOMSI          10D-  0             ***   
       EOM_NSTATES          IMRCCD         DAVIDSON    [  0]    ***   
       EOM_NTRIP            IEOMTR          10D-  0             ***   
       EOM_ORDER            IEXORD         ENERGY      [  0]    ***   
       EOM_PROPSTA          IEOMST              0               ***   
       ESTATE_CONV          IEXTOL          10D-  5             ***   
       ESTATE_DIAG          IEXDIG         ITERATIVE   [  0]    ***   
       ESTATE_LOCK          IESLOC         ON          [  1]    ***   
       ESTATE_MAXC          IEXMXC             40               ***   
       ESTATE_PROP          IEXPRP         OFF         [  0]    ***   
       EVAL_HESS            IRECAL              0            # of cyc.
       EXCITATION           IEXCIT              0               ***   
       EXCITE               IEXCIT         NONE        [  0]    ***   
       EXTERN_POT           IEXPOT         OFF         [  0]    ***   
       FCGRADNEW            IFCGNW         OFF         [  0]    ***   
       FC_FIELD             IFINFC              0             x 10-6  
       FD_CALTYPE           IFDCAL         GRADONLY    [  0]    ***   
       FD_PROJECT           IFDPRJ         OFF         [  1]    ***   
       FD_STEPSIZE          IDISFD              0            10-4 bohr
       FD_USEGROUP          IFDGRP         FULL        [  0]    ***   
       FILE_RECSIZ          IFLREC              4096           words  
       FINITE_PERT          IFIPER              0             x 10-6  
       FIXGEOM              IFIXGM         OFF         [  0]    ***   
       FOCK                 IFOCK          AO          [  1]    ***   
       FREQ_ALGORI          IVIALG         STANDARD    [  0]    ***   
       FROZEN_CORE          IFROCO         OFF         [  0]    ***   
       GAMMA_ABCD           IGABCD         STORE       [  0]    ***   
       GAMMA_ABCI           IGABCI         STORE       [  0]    ***   
       GENBAS_1             IGNBS1              0               ***   
       GENBAS_2             IGNBS2              0               ***   
       GENBAS_3             IGNBS3              0               ***   
       GENBAS_4             IGNBS4              0               ***   
       GEO_CONV             ICONTL              5              H/bohr 
       GEO_MAXCYC           IOPTCY             50               ***   
       GEO_MAXSTEP          IMXSTP            300            millibohr
       GEO_METHOD           INR            SINGLE_POINT[  5]    ***   
       GIAO                 IGIAO          OFF         [  1]    ***   
       GIMIC                IGIMIC         OFF         [  0]    ***   
       GRID                 IGRID          OFF         [  0]    ***   
       GRID_ALGO            IGALGO         SERIAL      [  0]    ***   
       GUESS                IGUESS         MOREAD      [  0]    ***   
       HBAR                 IHBAR          OFF         [  0]    ***   
       HESS_TYPE            IHESTP         SCF         [  0]    ***   
       HF2_FILE             IHF2Fl         USE         [  1]    ***   
       HFSTABILITY          ISTABL         OFF         [  0]    ***   
       INCORE               INCORE         OFF         [  0]    ***   
       INPUT_MRCC           IMRCC          ON          [  1]    ***   
       INTEGRALS            INTTYP         VMOL        [  1]    ***   
       JODA_PRINT           IJPRNT              0               ***   
       KEYWORD_OUT          IDMPKW         NO          [  0]    ***   
       LINDEP_TOL           ILINDP              8               ***   
       LINEQ_CONV           IZTACN          10D-  7           cycles  
       LINEQ_EXPOR          ILMAXD              5               ***   
       LINEQ_MAXCY          ILMAXC            100               ***   
       LINEQ_TYPE           ILTYPE         DIIS        [  1]    ***   
       LOCK_ORBOCC          ILOCOC         OFF         [  0]    ***   
       MEMORY_SIZE          IMEMSZ         500000000           words  
       MEM_UNIT             IMEMU          INTEGERWORDS[  0]    ***   
       MRCC                 IMRCCC         OFF         [  0]    ***   
       MULTIPLICTY          IMULTP              1               ***   
       NACOUPLING           IVCOUP         OFF         [  0]    ***   
       NEGEVAL              IDIE           ABORT       [  0]    ***   
       NEWNORM              INEWNO         OFF         [  0]    ***   
       NON-HF               INONHF         OFF         [  0]    ***   
       NTOP_TAMP            ITOPT2             15               ***   
       NUC_MODEL            INUCMO         POINT       [  0]    ***   
       OCCUPATION           IOCCU   ESTIMATED BY SCF 
       OPEN-SHELL           IOPEN          SPIN-ORBITAL[  0]    ***   
       OPTVIB               IOPTVB         OFF         [  0]    ***   
       ORBITALS             IORBTP         STANDARD    [  0]    ***   
       PARALLEL             IPARAL         ON          [  1]    ***   
       PARA_INT             IPINTS         ON          [  1]    ***   
       PARA_PRINT           IPPRIN              0               ***   
       PERT_ORB             IPTORB         STANDARD    [  0]    ***   
       POINTS               IGRDFD              0               ***   
       PRINT                IPRNT               0               ***   
       PROPS                IPROPS         OFF         [  0]    ***   
       PROP_INTEGR          IINTYP         INTERNAL    [  0]    ***   
       PSI                  IPSI           OFF         [  0]    ***   
       QC_ALG               IQCALG         FLM         [  0]    ***   
       QC_LINALG            IQCLIN         TRIDIAG     [  2]    ***   
       QC_MAXCYC            IQCMAX          10D-100           cycles  
       QC_MAXSCFCY          IQCMSC          10D- 15           cycles  
       QC_RTRUST            IQCRTR          10D-  0           x 10-3  
       QC_SKIPSCF           IQCSKI         OFF         [  0]    ***   
       QC_START             IQCSTA          10D-  1             ***   
       QRHFGUESS            IQGUES         OFF         [  0]    ***   
       QUARTIC              IQUART         OFF         [  0]    ***   
       RAMAN_INT            IRAMIN         OFF         [  0]    ***   
       RAMAN_ORB            IRAMRE         UNRELAXED   [  0]    ***   
       RDO                  IRDOFM         ON          [  1]    ***   
       REDUCE_REPR          REDREP         Ir          [  0]    ***   
       REFERENCE            IREFNC         RHF         [  0]    ***   
       RELATIVIST           IRELAT         OFF         [  0]    ***   
       RELAX_DENS           IRDENS         ON          [  1]    ***   
       RESET_FLAGS          IRESET         OFF         [  0]    ***   
       RESTART_CC           ICCRES         OFF         [  0]    ***   
       ROT_EVEC             ROTVEC              0               ***   
       SAVE_INTS            ISVINT         OFF         [  0]    ***   
       SCALE_ON             ISTCRT              0               ***   
       SCF_CONV             ISCFCV          10D- 10             ***   
       SCF_DAMPING          IDAMP               0             x 10-3  
       SCF_EXPORDE          IRPPOR              6               ***   
       SCF_EXPSTAR          IRPPLS              8               ***   
       SCF_EXTRAPO          IRPP           ON          [  1]    ***   
       SCF_MAXCYC           ISCFCY            150              cycles 
       SCF_NOSTOP           ISCFST         OFF         [  0]    ***   
       SCF_PRINT            ISCFPR              0               ***   
       SCF_PROG             ISCFPR         SCF         [  0]    ***   
       SD_FIELD             IFINSD              0             x 10-6  
       SOPERT               IPERSO         OFF         [  0]    ***   
       SPHERICAL            IDFGHI         ON          [  1]    ***   
       SPINORBIT            ISOCAL         OFF         [  0]    ***   
       SPINROTATIO          ISRCON         OFF         [  0]    ***   
       SPIN_FLIP            ISPFLP         OFF         [  0]    ***   
       SPIN_ORBIT           ISPORB         OFF         [  0]    ***   
       SPIN_SCAL            ISCSMP         OFF         [  0]    ***   
       STEEPSCALE           ISTPSC              1000          x 10-3  
       SUBGROUP             ISUBGP         DEFAULT     [  0]    ***   
       SUBGRPAXIS           ISBXYZ         X           [  0]    ***   
       SYMMETRY             ISYM           ON          [  0]    ***   
       SYM_CHECK            ISYMCK         OVERRIDE    [  1]    ***   
       T3_EXTRAPOL          IT3EXT         OFF         [  0]    ***   
       T4_EXTRAPOL          IT4EXP         OFF         [  0]    ***   
       TAMP_SUM             IEVERY              5               ***   
       TESTSUITE            ITESTS         OFF         [  0]    ***   
       THERMOCH             ITHERM         OFF         [  0]    ***   
       TOL_CHOLESK          ITOLCH          10D-  4             ***   
       TRANGRAD             IRESRM         OFF         [  0]    ***   
       TRANS_INV            ITRAIN         IGNORE      [  1]    ***   
       TREAT_PERT           ITREAT         SIMULTANEOUS[  0]    ***   
       TRIP_ALGORI          ITRALG         NORMAL      [  0]    ***   
       UIJ_THRESHO          IUIJTH              1               ***   
       UNITS                IUNITS         ANGSTROM    [  0]    ***   
       UNOS                 IUNOS          OFF         [  0]    ***   
       UPDATE_HESS          IHUPDT         ON          [  1]    ***   
       VIBPHASE             ISETPH         STANDARD    [  0]    ***   
       VIBRATION            IVIB           ANALYTIC    [  1]    ***   
       VIB_ALGORIT          IGEALG         STANDARD    [  0]    ***   
       VNATORB              IVNORB         OFF         [  0]    ***   
       VTRAN                IVTRAN         FULL/PARTIAL[  0]    ***   
       XFIELD               IXEFLD              0             x 10-6  
       XFORM_TOL            IXFTOL          10D- 11             ***   
       YFIELD               IYEFLD              0             x 10-6  
       ZFIELD               IZEFLD              0             x 10-6  
       ZSCALE_EXP           IZEXPS         OFF         [  0]    ***   
    -------------------------------------------------------------------
   3 entries found in Z-matrix 
   Job Title : Hypochlorous acid DBOC calculation                                              
   There are  3 unique internal coordinates.
   Of these,  0 will be optimized.
   User supplied Z-matrix: 
--------------------------------------------------------------------------------
       SYMBOL    BOND      LENGTH    ANGLE     ANGLE     DIHED     ANGLE
                  TO      (ANGST)    WRT      (DEG)      WRT      (DEG)
--------------------------------------------------------------------------------
        O    
        H          1         ROH  
        CL         1         ROCL       2        A    
                  *Initial values for internal coordinates* 
                      Name             Value
                        ROH             2.1500000000
                        ROCL            1.6830000000
                        A             107.0000000000
--------------------------------------------------------------------------------
   Rotational constants (in cm-1): 
          0.4389161189             0.4863659890             4.4989348134
   Rotational constants (in MHz): 
      13158.3760578466         14580.8875744262        134874.6915053483
********************************************************************************
   The full molecular point group is C s .
   The largest Abelian subgroup of the full molecular point group is C s .
   The computational point group is C s .
********************************************************************************
--------------------------------------------------------------------------------
   Analysis of internal coordinates specified by Z-matrix 
--------------------------------------------------------------------------------
   *The nuclear repulsion energy is   47.638684487895539 a.u.
   *There are   3 degrees of freedom within the tot. symm. molecular subspace.
   *Z-matrix requests optimization of   0 coordinates.
   *The optimization is constrained.
   *The following   3 parameters can have non-zero 
    derivatives within the totally symmetric subspace:
             A    [ 3]  ROH  [ 1]  ROCL [ 2]
   *The following   0 parameters are to be optimized:

   *The following coordinates must be varied in an  unconstrained optimization.
             A    [ 3]  ROH  [ 1]  ROCL [ 2]
--------------------------------------------------------------------------------


 ----------------------------------------------------------------
         Coordinates used in calculation (QCOMP) 
 ----------------------------------------------------------------
 Z-matrix   Atomic            Coordinates (in bohr)
  Symbol    Number           X              Y              Z
 ----------------------------------------------------------------
     O         8        -2.09319299     0.32471517     0.00000000
     H         1        -3.73143412    -3.39327085     0.00000000
     CL       17         1.06497849    -0.05072995     0.00000000
 ----------------------------------------------------------------
 
   Interatomic distance matrix (Angstroms) 
 
                 O             H             CL   
                [ 1]        [ 2]        [ 3]
  O    [ 1]     0.00000
  H    [ 2]     2.15000     0.00000
  CL   [ 3]     1.68300     3.09368     0.00000
 rotcon2
   Rotational constants (in cm-1): 
          4.4989348134             0.4863659890             0.4389161189
   Rotational constants (in MHz): 
     134874.6915053484         14580.8875744262         13158.3760578466
  ECPDATA file not present.   Using default ECPDATA. 
  @GTFLGS-I, Hessian will be transformed to curvilinear coordinates.
  There are  157 basis functions.
 @CHECKOUT-I, Total execution time (CPU/WALL):        0.24/       0.35 seconds.
--executable xjoda finished with status     0 in        0.39 seconds (walltime).
 --invoking executable--
/home/asmola/.local/bin/xvmol
 SERIAL VERSION OF MOLECULE STARTED
********************************************************************************
                    INPUT FROM MOL FILE
********************************************************************************
INTGRL        1    0    1    0    0    0    0    0    0                         
         *** CFOUR Program System (Release V0.1) ***                            
Hypochlorous acid DBOC calculation                                              
    3    1 Z          0.10E-08              0    0                              
   9999.00      3.00                                                            
          8.00000000    1    4    1    1    1    1                              
O #1  -2.093192985605338   0.324715165736652   0.000000000000000                
   13    7                                                                      
   15330.0000000000       5.080000000000000E-004 -1.150000000000000E-004        
  0.000000000000000E+000  0.000000000000000E+000  0.000000000000000E+000        
  0.000000000000000E+000  0.000000000000000E+000                                
   2299.00000000000       3.929000000000000E-003 -8.950000000000000E-004        
  0.000000000000000E+000  0.000000000000000E+000  0.000000000000000E+000        
  0.000000000000000E+000  0.000000000000000E+000                                
   522.400000000000       2.024300000000000E-002 -4.636000000000000E-003        
  0.000000000000000E+000  0.000000000000000E+000  0.000000000000000E+000        
  0.000000000000000E+000  0.000000000000000E+000                                
   147.300000000000       7.918100000000000E-002 -1.872400000000000E-002        
  0.000000000000000E+000  0.000000000000000E+000  0.000000000000000E+000        
  0.000000000000000E+000  0.000000000000000E+000                                
   47.5500000000000       0.230687000000000      -5.846300000000000E-002        
  0.000000000000000E+000  0.000000000000000E+000  0.000000000000000E+000        
  0.000000000000000E+000  0.000000000000000E+000                                
   16.7600000000000       0.433118000000000      -0.136463000000000             
  0.000000000000000E+000  0.000000000000000E+000  0.000000000000000E+000        
  0.000000000000000E+000  0.000000000000000E+000                                
   6.20700000000000       0.350260000000000      -0.175740000000000             
  0.000000000000000E+000  0.000000000000000E+000  0.000000000000000E+000        
  0.000000000000000E+000  0.000000000000000E+000                                
   1.75200000000000       4.272800000000000E-002  0.160934000000000             
   1.00000000000000       0.000000000000000E+000  0.000000000000000E+000        
  0.000000000000000E+000  0.000000000000000E+000                                
  0.688200000000000      -8.154000000000000E-003  0.603418000000000             
  0.000000000000000E+000  0.000000000000000E+000  0.000000000000000E+000        
  0.000000000000000E+000  0.000000000000000E+000                                
  0.238400000000000       2.381000000000000E-003  0.378765000000000             
  0.000000000000000E+000   1.00000000000000       0.000000000000000E+000        
  0.000000000000000E+000  0.000000000000000E+000                                
   7.84500000000000       0.000000000000000E+000  0.000000000000000E+000        
  0.000000000000000E+000  0.000000000000000E+000   1.00000000000000             
  0.000000000000000E+000  0.000000000000000E+000                                
   21.0320000000000       0.000000000000000E+000  0.000000000000000E+000        
  0.000000000000000E+000  0.000000000000000E+000  0.000000000000000E+000        
   1.00000000000000       0.000000000000000E+000                                
  7.376000000000001E-002  0.000000000000000E+000  0.000000000000000E+000        
  0.000000000000000E+000  0.000000000000000E+000  0.000000000000000E+000        
  0.000000000000000E+000   1.00000000000000                                     
    8    6                                                                      
   34.4600000000000       1.592800000000000E-002  0.000000000000000E+000        
  0.000000000000000E+000  0.000000000000000E+000  0.000000000000000E+000        
  0.000000000000000E+000                                                        
   7.74900000000000       9.974000000000000E-002  0.000000000000000E+000        
  0.000000000000000E+000  0.000000000000000E+000  0.000000000000000E+000        
  0.000000000000000E+000                                                        
   2.28000000000000       0.310492000000000       0.000000000000000E+000        
  0.000000000000000E+000  0.000000000000000E+000  0.000000000000000E+000        
  0.000000000000000E+000                                                        
  0.715600000000000       0.491026000000000        1.00000000000000             
  0.000000000000000E+000  0.000000000000000E+000  0.000000000000000E+000        
  0.000000000000000E+000                                                        
  0.214000000000000       0.336337000000000       0.000000000000000E+000        
   1.00000000000000       0.000000000000000E+000  0.000000000000000E+000        
  0.000000000000000E+000                                                        
   15.1590000000000       0.000000000000000E+000  0.000000000000000E+000        
  0.000000000000000E+000   1.00000000000000       0.000000000000000E+000        
  0.000000000000000E+000                                                        
   57.4370000000000       0.000000000000000E+000  0.000000000000000E+000        
  0.000000000000000E+000  0.000000000000000E+000   1.00000000000000             
  0.000000000000000E+000                                                        
  5.974000000000000E-002  0.000000000000000E+000  0.000000000000000E+000        
  0.000000000000000E+000  0.000000000000000E+000  0.000000000000000E+000        
   1.00000000000000                                                             
    4    4                                                                      
   2.31400000000000        1.00000000000000       0.000000000000000E+000        
  0.000000000000000E+000  0.000000000000000E+000                                
  0.645000000000000       0.000000000000000E+000   1.00000000000000             
  0.000000000000000E+000  0.000000000000000E+000                                
   15.8580000000000       0.000000000000000E+000  0.000000000000000E+000        
   1.00000000000000       0.000000000000000E+000                                
  0.214000000000000       0.000000000000000E+000  0.000000000000000E+000        
  0.000000000000000E+000   1.00000000000000                                     
    2    2                                                                      
   1.42800000000000        1.00000000000000       0.000000000000000E+000        
  0.500000000000000       0.000000000000000E+000   1.00000000000000             
          1.00000000    1    3    1    1    1                                   
H #2  -3.731434124033077  -3.393270854951983   0.000000000000000                
    6    4                                                                      
   33.8700000000000       6.068000000000000E-003  0.000000000000000E+000        
  0.000000000000000E+000  0.000000000000000E+000                                
   5.09500000000000       4.530800000000000E-002  0.000000000000000E+000        
  0.000000000000000E+000  0.000000000000000E+000                                
   1.15900000000000       0.202822000000000       0.000000000000000E+000        
  0.000000000000000E+000  0.000000000000000E+000                                
  0.325800000000000       0.503903000000000        1.00000000000000             
  0.000000000000000E+000  0.000000000000000E+000                                
  0.102700000000000       0.383421000000000       0.000000000000000E+000        
   1.00000000000000       0.000000000000000E+000                                
  2.526000000000000E-002  0.000000000000000E+000  0.000000000000000E+000        
  0.000000000000000E+000   1.00000000000000                                     
    3    3                                                                      
   1.40700000000000        1.00000000000000       0.000000000000000E+000        
  0.000000000000000E+000                                                        
  0.388000000000000       0.000000000000000E+000   1.00000000000000             
  0.000000000000000E+000                                                        
  0.102000000000000       0.000000000000000E+000  0.000000000000000E+000        
   1.00000000000000                                                             
    2    2                                                                      
   1.05700000000000        1.00000000000000       0.000000000000000E+000        
  0.247000000000000       0.000000000000000E+000   1.00000000000000             
         17.00000000    1    4    1    1    1    1                              
CL#3   1.064978486216148  -0.050729946762087   0.000000000000000                
   18    8                                                                      
   456100.000000000       4.930000000000000E-005 -1.380000000000000E-005        
  4.200000000000000E-006  0.000000000000000E+000  0.000000000000000E+000        
  0.000000000000000E+000  0.000000000000000E+000  0.000000000000000E+000        
   68330.0000000000       3.830000000000000E-004 -1.073000000000000E-004        
  3.240000000000000E-005  0.000000000000000E+000  0.000000000000000E+000        
  0.000000000000000E+000  0.000000000000000E+000  0.000000000000000E+000        
   15550.0000000000       2.008500000000000E-003 -5.651000000000000E-004        
  1.711000000000000E-004  0.000000000000000E+000  0.000000000000000E+000        
  0.000000000000000E+000  0.000000000000000E+000  0.000000000000000E+000        
   4405.00000000000       8.385600000000000E-003 -2.361400000000000E-003        
  7.142000000000000E-004  0.000000000000000E+000  0.000000000000000E+000        
  0.000000000000000E+000  0.000000000000000E+000  0.000000000000000E+000        
   1439.00000000000       2.947030000000000E-002 -8.458900000000000E-003        
  2.567000000000000E-003  0.000000000000000E+000  0.000000000000000E+000        
  0.000000000000000E+000  0.000000000000000E+000  0.000000000000000E+000        
   520.400000000000       8.783249999999999E-002 -2.596380000000000E-002        
  7.885500000000000E-003  0.000000000000000E+000  0.000000000000000E+000        
  0.000000000000000E+000  0.000000000000000E+000  0.000000000000000E+000        
   203.100000000000       0.211473000000000      -6.863619999999999E-002        
  2.108670000000000E-002  0.000000000000000E+000  0.000000000000000E+000        
  0.000000000000000E+000  0.000000000000000E+000  0.000000000000000E+000        
   83.9600000000000       0.365364000000000      -0.141874000000000             
  4.422640000000000E-002  0.000000000000000E+000  0.000000000000000E+000        
  0.000000000000000E+000  0.000000000000000E+000  0.000000000000000E+000        
   36.2000000000000       0.340884000000000      -0.199319000000000             
  6.516700000000000E-002  0.000000000000000E+000  0.000000000000000E+000        
  0.000000000000000E+000  0.000000000000000E+000  0.000000000000000E+000        
   15.8300000000000       0.102133000000000      -1.956620000000000E-002        
  6.030100000000000E-003  0.000000000000000E+000  0.000000000000000E+000        
  0.000000000000000E+000  0.000000000000000E+000  0.000000000000000E+000        
   6.33400000000000       3.116800000000000E-003  0.499741000000000             
 -0.206495000000000       0.000000000000000E+000  0.000000000000000E+000        
  0.000000000000000E+000  0.000000000000000E+000  0.000000000000000E+000        
   2.69400000000000       1.057500000000000E-003  0.563736000000000             
 -0.405871000000000       0.000000000000000E+000  0.000000000000000E+000        
  0.000000000000000E+000  0.000000000000000E+000  0.000000000000000E+000        
  0.976800000000000      -3.780000000000000E-004  7.903250000000001E-002        
  7.595580000000000E-002   1.00000000000000       0.000000000000000E+000        
  0.000000000000000E+000  0.000000000000000E+000  0.000000000000000E+000        
  0.431300000000000       1.561000000000000E-004 -8.350900000000000E-003        
  0.725661000000000       0.000000000000000E+000  0.000000000000000E+000        
  0.000000000000000E+000  0.000000000000000E+000  0.000000000000000E+000        
  0.162500000000000      -5.140000000000000E-005  2.324600000000000E-003        
  0.394423000000000       0.000000000000000E+000   1.00000000000000             
  0.000000000000000E+000  0.000000000000000E+000  0.000000000000000E+000        
   15.0640000000000       0.000000000000000E+000  0.000000000000000E+000        
  0.000000000000000E+000  0.000000000000000E+000  0.000000000000000E+000        
   1.00000000000000       0.000000000000000E+000  0.000000000000000E+000        
   2.87400000000000       0.000000000000000E+000  0.000000000000000E+000        
  0.000000000000000E+000  0.000000000000000E+000  0.000000000000000E+000        
  0.000000000000000E+000   1.00000000000000       0.000000000000000E+000        
  5.910000000000000E-002  0.000000000000000E+000  0.000000000000000E+000        
  0.000000000000000E+000  0.000000000000000E+000  0.000000000000000E+000        
  0.000000000000000E+000  0.000000000000000E+000   1.00000000000000             
   12    7                                                                      
   663.300000000000       2.404500000000000E-003 -6.521000000000000E-004        
  0.000000000000000E+000  0.000000000000000E+000  0.000000000000000E+000        
  0.000000000000000E+000  0.000000000000000E+000                                
   156.800000000000       1.921480000000000E-002 -5.194500000000000E-003        
  0.000000000000000E+000  0.000000000000000E+000  0.000000000000000E+000        
  0.000000000000000E+000  0.000000000000000E+000                                
   49.9800000000000       8.850970000000000E-002 -2.469380000000000E-002        
  0.000000000000000E+000  0.000000000000000E+000  0.000000000000000E+000        
  0.000000000000000E+000  0.000000000000000E+000                                
   18.4200000000000       0.256020000000000      -7.281670000000000E-002        
  0.000000000000000E+000  0.000000000000000E+000  0.000000000000000E+000        
  0.000000000000000E+000  0.000000000000000E+000                                
   7.24000000000000       0.436927000000000      -0.134030000000000             
  0.000000000000000E+000  0.000000000000000E+000  0.000000000000000E+000        
  0.000000000000000E+000  0.000000000000000E+000                                
   2.92200000000000       0.350334000000000      -9.477420000000000E-002        
  0.000000000000000E+000  0.000000000000000E+000  0.000000000000000E+000        
  0.000000000000000E+000  0.000000000000000E+000                                
   1.02200000000000       5.854950000000000E-002  0.262289000000000             
   1.00000000000000       0.000000000000000E+000  0.000000000000000E+000        
  0.000000000000000E+000  0.000000000000000E+000                                
  0.381800000000000      -4.584200000000000E-003  0.564667000000000             
  0.000000000000000E+000  0.000000000000000E+000  0.000000000000000E+000        
  0.000000000000000E+000  0.000000000000000E+000                                
  0.130100000000000       2.269700000000000E-003  0.341250000000000             
  0.000000000000000E+000   1.00000000000000       0.000000000000000E+000        
  0.000000000000000E+000  0.000000000000000E+000                                
   9.48000000000000       0.000000000000000E+000  0.000000000000000E+000        
  0.000000000000000E+000  0.000000000000000E+000   1.00000000000000             
  0.000000000000000E+000  0.000000000000000E+000                                
   3.66800000000000       0.000000000000000E+000  0.000000000000000E+000        
  0.000000000000000E+000  0.000000000000000E+000  0.000000000000000E+000        
   1.00000000000000       0.000000000000000E+000                                
  4.190000000000000E-002  0.000000000000000E+000  0.000000000000000E+000        
  0.000000000000000E+000  0.000000000000000E+000  0.000000000000000E+000        
  0.000000000000000E+000   1.00000000000000                                     
    5    5                                                                      
   1.04600000000000        1.00000000000000       0.000000000000000E+000        
  0.000000000000000E+000  0.000000000000000E+000  0.000000000000000E+000        
  0.344000000000000       0.000000000000000E+000   1.00000000000000             
  0.000000000000000E+000  0.000000000000000E+000  0.000000000000000E+000        
   17.9570000000000       0.000000000000000E+000  0.000000000000000E+000        
   1.00000000000000       0.000000000000000E+000  0.000000000000000E+000        
   5.76000000000000       0.000000000000000E+000  0.000000000000000E+000        
  0.000000000000000E+000   1.00000000000000       0.000000000000000E+000        
  0.135000000000000       0.000000000000000E+000  0.000000000000000E+000        
  0.000000000000000E+000  0.000000000000000E+000   1.00000000000000             
    3    3                                                                      
  0.706000000000000        1.00000000000000       0.000000000000000E+000        
  0.000000000000000E+000                                                        
   11.7790000000000       0.000000000000000E+000   1.00000000000000             
  0.000000000000000E+000                                                        
  0.312000000000000       0.000000000000000E+000  0.000000000000000E+000        
   1.00000000000000                                                             
FINISH                                                                          
 
********************************************************************************
 ONE- AND TWO-ELECTRON INTEGRALS OVER SYMMETRY-ADAPTED AOS ARE CALCULATED.

  SPHERICAL HARMONICS ARE USED.
  
  INTEGRALS LESS THAN  0.10E-13 ARE NEGLECTED.

  NUCLEAR REPULSION ENERGY :   47.6386844879 A.U.
  @MOLECU-I, ONE ELECTRON INTEGRALS (CPU/WALL):        0.04/       0.05 SECONDS.
  @TWOEL-I,   13879296 INTEGRALS OF SYMMETRY TYPE  I I I I
  @TWOEL-I,   13006421 INTEGRALS OF SYMMETRY TYPE  I J I J
  @TWOEL-I,    6738387 INTEGRALS OF SYMMETRY TYPE  I I J J
  @TWOEL-I, TOTAL NUMBER OF 2-E INTEGRALS   33624104.
  @MOLECU-I, TWO ELECTRON INTEGRALS (CPU/WALL):       53.92/       9.11 SECONDS.
 @CHECKOUT-I, Total execution time (CPU/WALL):       53.97/       9.17 seconds.

Running with 14 threads/proc

--executable xvmol finished with status     0 in        9.22 seconds (walltime).
 --invoking executable--
/home/asmola/.local/bin/xvmol2ja
 @GETMEM-I,  Allocated    3814 MB of main memory.
 @CHECKOUT-I, Total execution time (CPU/WALL):        0.13/       0.06 seconds.
--executable xvmol2ja finished with status     0 in        0.09 seconds (walltime).
 --invoking executable--
/home/asmola/.local/bin/xvscf
  There are  157 functions in the AO basis.

  There are 2 irreducible representations.

       Irrep        # of functions
         1                104
         2                 53


  Parameters for SCF calculation: 
        SCF reference function:  RHF  
  Maximum number of iterations:  150
     Full symmetry point group: C s 
     Computational point group: C s 
        Initial density matrix: MOREAD                 
     SCF convergence tolerance: 10**(-10)
  DIIS convergence acceleration:  ON
          Latest start for DIIS:   8
                     DIIS order:   6

  Memory information:    1209746 words required.
  Fock matrices are constructed from AO integral file.
 @GETMEM-I,  Allocated       9 MB of main memory.
  Initialization and symmetry analysis required      0.001 seconds.

  @INITGES-I, Occupancies from core Hamiltonian:

          Alpha population by irrep:  10    3
           Beta population by irrep:  10    3


 total no. of electrons in initial guess :  0.000000000000000E+000
  --------------------------------------------------------------------
  Iteration         Total Energy            Largest Density Difference
  --------------------------------------------------------------------
       0            47.638684487895546              0.0000000000D+00
   current occupation vector 
    10  3
    10  3
       1          -366.695697937696195              0.1324875402D+02
   current occupation vector 
    10  3
    10  3
       2          -344.843379541966385              0.1320365409D+02
   current occupation vector 
    10  3
    10  3
       3          -422.649024727404367              0.1065069181D+02
   current occupation vector 
    10  3
    10  3
       4          -341.632163133315601              0.1066267328D+02
   current occupation vector 
    10  3
    10  3
       5          -422.378902902521133              0.1060036546D+02
   current occupation vector 
    10  3
    10  3
       6          -341.535750471220808              0.1060077103D+02
   current occupation vector 
    10  3
    10  3
       7          -422.370531143935466              0.1059871931D+02
   current occupation vector 
    10  3
    10  3
       8          -341.532919456810021              0.1059873045D+02
   current occupation vector 
    10  3
    10  3
       9          -445.172391323950706              0.8442604361D+01
   current occupation vector 
    10  3
    10  3
      10          -460.195979035474295              0.1637027695D+01
   current occupation vector 
    10  3
    10  3
      11          -463.396002816707494              0.3598915447D+00
   current occupation vector 
    10  3
    10  3
      12          -463.367186933199605              0.7148542912D-01
   current occupation vector 
    10  3
    10  3
      13          -466.400225153921781              0.3412337377D+00
   current occupation vector 
    10  3
    10  3
      14          -465.862100000888574              0.6124627036D-01
   current occupation vector 
    10  3
    10  3
      15          -396.802083806604060              0.7442462776D+01
   current occupation vector 
    10  3
    10  3
      16          -483.693202829325685              0.7442512063D+01
   current occupation vector 
    10  3
    10  3
      17          -519.529515037339252              0.2365921200D+01
   current occupation vector 
    10  3
    10  3
      18          -528.831051761116669              0.6552924705D+00
   current occupation vector 
    10  3
    10  3
      19          -533.593441785815003              0.8195153011D+00
   current occupation vector 
    10  3
    10  3
      20          -534.433314216483268              0.3963812859D+00
   current occupation vector 
    10  3
    10  3
      21          -534.598438701536907              0.6331403914D+00
   current occupation vector 
    10  3
    10  3
      22          -534.671832679970066              0.4291922168D+00
   current occupation vector 
    10  3
    10  3
      23          -534.677330908258682              0.5611552950D-01
   current occupation vector 
    10  3
    10  3
      24          -534.680282116392391              0.9225009197D-01
   current occupation vector 
    10  3
    10  3
      25          -534.681001614198294              0.4257255557D-01
   current occupation vector 
    10  3
    10  3
      26          -534.681094806941928              0.1557683158D-01
   current occupation vector 
    10  3
    10  3
      27          -534.681100865853978              0.3702909237D-02
   current occupation vector 
    10  3
    10  3
      28          -534.681101603388470              0.8146335327D-03
   current occupation vector 
    10  3
    10  3
      29          -534.681101744804209              0.4411337418D-03
   current occupation vector 
    10  3
    10  3
      30          -534.681101768042936              0.1906590246D-03
   current occupation vector 
    10  3
    10  3
      31          -534.681101772383272              0.7562307090D-04
   current occupation vector 
    10  3
    10  3
      32          -534.681101773428736              0.4057879843D-04
   current occupation vector 
    10  3
    10  3
      33          -534.681101773657929              0.1678460162D-04
   current occupation vector 
    10  3
    10  3
      34          -534.681101773698174              0.7819599813D-05
   current occupation vector 
    10  3
    10  3
      35          -534.681101773706814              0.3852105415D-05
   current occupation vector 
    10  3
    10  3
      36          -534.681101773711589              0.1445231768D-05
   current occupation vector 
    10  3
    10  3
      37          -534.681101773711589              0.5875315283D-06
   current occupation vector 
    10  3
    10  3
      38          -534.681101773709543              0.9571200478D-07
   current occupation vector 
    10  3
    10  3
      39          -534.681101773707042              0.7175830052D-07
   current occupation vector 
    10  3
    10  3
      40          -534.681101773704313              0.2527053677D-07
   current occupation vector 
    10  3
    10  3
      41          -534.681101773709088              0.2402648080D-07
   current occupation vector 
    10  3
    10  3
      42          -534.681101773704540              0.7745965314D-08
   current occupation vector 
    10  3
    10  3
      43          -534.681101773710907              0.5025868166D-08
   current occupation vector 
    10  3
    10  3
      44          -534.681101773708178              0.1269140903D-08
   current occupation vector 
    10  3
    10  3
      45          -534.681101773704995              0.3793948489D-09
   current occupation vector 
    10  3
    10  3
      46          -534.681101773707042              0.1302093156D-09
   current occupation vector 
    10  3
    10  3
      47          -534.681101773711134              0.1014105466D-09
   current occupation vector 
    10  3
    10  3

  SCF has converged.

 Density matrix saved to file den.dat
 total electron number:   26.0000000000003     
     E(SCF)=      -534.681101773706359              0.3676298155D-10

  Eigenvector printing suppressed.

 @PUTMOS-I, Writing converged MOs to NEWMOS. 
 @PUTMOS-I, Symmetry   1 Full Blocks 26 Partial Blocksize   0
 @PUTMOS-I, Symmetry   2 Full Blocks 13 Partial Blocksize   1
 @PUTFOCK-I, Writing converged Fock matrix to NEWFOCK. 
 @PUTFOCK-I, Symmetry   1 Full Blocks 26 Partial Blocksize   0
 @PUTFOCK-I, Symmetry   2 Full Blocks 13 Partial Blocksize   1


 
  ORBITAL EIGENVALUES (ALPHA)  (1H = 27.2113834 eV)

       MO #        E(hartree)               E(eV)           FULLSYM    COMPSYM
       ----   --------------------   --------------------   -------   ---------
    1     1        -104.8907246600       -2854.2217238266     A'        A'  (1)
    2     2         -20.6748032848        -562.5899989021     A'        A'  (1)
    3     3         -10.6098722884        -288.7093026658     A'        A'  (1)
    4     4          -8.0763690883        -219.7691757416     A'        A'  (1)
    5     5          -8.0745132615        -219.7186761265     A'        A'  (1)
    6   105          -8.0741893941        -219.7098632462     A''       A'' (2)
    7     6          -1.3477491306         -36.6741183210     A'        A'  (1)
    8     7          -1.0270898838         -27.9485366157     A'        A'  (1)
    9   106          -0.6033533612         -16.4180796372     A''       A'' (2)
   10     8          -0.5926549174         -16.1269601820     A'        A'  (1)
   11     9          -0.5504850780         -14.9794605136     A'        A'  (1)
   12   107          -0.4369993059         -11.8913556595     A''       A'' (2)
   13    10          -0.3909784887         -10.6390655563     A'        A'  (1)
  +++++++++++++++++++++++++++++++++++++++++++++++++++++++++++++++++++++++++++++
   14    11          -0.0944003645          -2.5687645115     A'        A'  (1)
   15    12           0.0512225971           1.3938377291     A'        A'  (1)
   16    13           0.0757639462           2.0616417892     A'        A'  (1)
   17   108           0.1175569223           3.1988864854     A''       A'' (2)
   18    14           0.1177092137           3.2030305451     A'        A'  (1)
   19    15           0.1420065864           3.8641956673     A'        A'  (1)
   20    16           0.1620124769           4.4085836232     A'        A'  (1)
   21    17           0.1757786531           4.7831803243     A'        A'  (1)
   22   109           0.1878634168           5.1120234619     A''       A'' (2)
   23    18           0.2273752107           6.1871940352     A'        A'  (1)
   24   110           0.2404637849           6.5433522445     A''       A'' (2)
   25    19           0.2678804100           7.2893965421     A'        A'  (1)
   26    20           0.2947679340           8.0210432666     A'        A'  (1)
   27    21           0.3428906185           9.3305280854     A'        A'  (1)
   28   111           0.3610456855           9.8245525723     A''       A'' (2)
   29    22           0.3805532578          10.3553806033     A'        A'  (1)
   30   112           0.4249322098          11.5629932794     A''       A'' (2)
   31    23           0.4508185631          12.2673967646     A'        A'  (1)
   32    24           0.5085497079          13.8383410804     A'        A'  (1)
   33    25           0.5725158183          15.5789474333     A'        A'  (1)
   34   113           0.6190748319          16.8458826028     A''       A'' (2)
   35    26           0.6271672318          17.0660880017     A'        A'  (1)
   36    27           0.6603051931          17.9678177711     A'        A'  (1)
   37   114           0.7093338405          19.3019550929     A''       A'' (2)
   38    28           0.7407510408          20.1568605756     A'        A'  (1)
   39    29           0.7660002055          20.8439252775     A'        A'  (1)
   40   115           0.7803079440          21.2332586352     A''       A'' (2)
   41    30           0.7804227253          21.2363819919     A'        A'  (1)
   42   116           0.7965901070          21.6763188148     A''       A'' (2)
   43    31           0.8150250703          22.1779596692     A'        A'  (1)
   44   117           0.8754279073          23.8216044257     A''       A'' (2)
   45    32           0.9104394023          24.7743156385     A'        A'  (1)
   46    33           0.9217366561          25.0817295426     A'        A'  (1)
   47   118           0.9295577010          25.2945509949     A''       A'' (2)
   48    34           0.9710689589          26.4241297482     A'        A'  (1)
   49   119           0.9821864872          26.7266530746     A''       A'' (2)
   50    35           0.9921957250          26.9990182802     A'        A'  (1)
   51    36           1.0106041677          27.4999374729     A'        A'  (1)
   52    37           1.0308435821          28.0506799384     A'        A'  (1)
   53   120           1.0356050807          28.1802469023     A''       A'' (2)
   54    38           1.0794994910          29.3746745285     A'        A'  (1)
   55    39           1.1168924130          30.3921876673     A'        A'  (1)
   56   121           1.1460451703          31.1854745235     A''       A'' (2)
   57    40           1.1871516054          32.3040374877     A'        A'  (1)
   58   122           1.2202732862          33.2053242441     A''       A'' (2)
   59    41           1.2480593819          33.9614223471     A'        A'  (1)
   60   123           1.3250069109          36.0552710592     A''       A'' (2)
   61    42           1.4093434274          38.3501843443     A'        A'  (1)
   62   124           1.5222445237          41.4223793634     A''       A'' (2)
   63    43           1.5228874621          41.4398746074     A'        A'  (1)
   64    44           1.6114805514          43.8506151262     A'        A'  (1)
   65    45           1.6926357995          46.0589616964     A'        A'  (1)
   66    46           1.7624763858          47.9594206667     A'        A'  (1)
   67   125           2.1250231958          57.8248209154     A''       A'' (2)
   68    47           2.1331701750          58.0465114902     A'        A'  (1)
   69   126           2.2199447343          60.4077672908     A''       A'' (2)
   70    48           2.2464795113          61.1298152833     A'        A'  (1)
   71   127           2.2801754902          62.0467294821     A''       A'' (2)
   72    49           2.3032125793          62.6736005469     A'        A'  (1)
   73   128           2.3141265313          62.9705842799     A''       A'' (2)
   74    50           2.3164705664          63.0343687160     A'        A'  (1)
   75    51           2.3439343002          63.7816949080     A'        A'  (1)
   76    52           2.3728561812          64.5686992992     A'        A'  (1)
   77   129           2.4290130039          66.0968041338     A''       A'' (2)
   78    53           2.4521852482          66.7273529560     A'        A'  (1)
   79   130           2.4759963845          67.3752869145     A''       A'' (2)
   80    54           2.4827526800          67.5591350632     A'        A'  (1)
   81   131           2.5025113452          68.0967956773     A''       A'' (2)
   82    55           2.5468980623          69.3046196542     A'        A'  (1)
   83    56           2.7982906364          76.1453593728     A'        A'  (1)
   84   132           2.9001082006          78.9159561476     A''       A'' (2)
   85    57           2.9246611414          79.5840756335     A'        A'  (1)
   86    58           2.9722906025          80.8801391612     A'        A'  (1)
   87   133           3.0509431509          83.0203838106     A''       A'' (2)
   88    59           3.0549704912          83.1299733111     A'        A'  (1)
   89   134           3.0853178031          83.9557656502     A''       A'' (2)
   90    60           3.1198814118          84.8962892586     A'        A'  (1)
   91    61           3.1927659651          86.8795787816     A'        A'  (1)
   92   135           3.3690676076          91.6769903717     A''       A'' (2)
   93    62           3.3747894127          91.8326886040     A'        A'  (1)
   94    63           3.3831877369          92.0612186223     A'        A'  (1)
   95   136           3.7763335421         102.7592598609     A''       A'' (2)
   96    64           3.7803903118         102.8696501759     A'        A'  (1)
   97    65           3.8039154003         103.5098003787     A'        A'  (1)
   98   137           3.8378768671         104.4339388733     A''       A'' (2)
   99    66           3.9075850003         106.3307936102     A'        A'  (1)
  100    67           3.9899193679         108.5712256554     A'        A'  (1)
  101   138           3.9942639087         108.6894466191     A''       A'' (2)
  102    68           4.0364089197         109.8362706724     A'        A'  (1)
  103   139           4.1798661842         113.7399413002     A''       A'' (2)
  104    69           4.2118954257         114.6115012691     A'        A'  (1)
  105    70           4.5664285767         124.2588387686     A'        A'  (1)
  106    71           5.1093343758         139.0320566184     A'        A'  (1)
  107    72           5.8105701473         158.1136520499     A'        A'  (1)
  108   140           6.5301817300         177.6952787279     A''       A'' (2)
  109    73           6.5606135083         178.5233695148     A'        A'  (1)
  110   141           6.5776800439         178.9877735579     A''       A'' (2)
  111    74           6.6457084295         180.8389200397     A'        A'  (1)
  112   142           6.7645346768         184.0723466126     A''       A'' (2)
  113    75           6.8049084916         185.1709739661     A'        A'  (1)
  114    76           6.8823288785         187.2776897966     A'        A'  (1)
  115   143           7.0445147730         191.6909923553     A''       A'' (2)
  116    77           7.0781813353         192.6071060905     A'        A'  (1)
  117   144           7.1623516393         194.8974965023     A''       A'' (2)
  118    78           7.1754221366         195.2531628171     A'        A'  (1)
  119    79           7.6231675411         207.4369346837     A'        A'  (1)
  120   145          10.3461612076         281.5333593386     A''       A'' (2)
  121    80          10.3533646640         281.7293753529     A'        A'  (1)
  122   146          10.3855624477         282.6055215880     A''       A'' (2)
  123    81          10.4104184300         283.2818872534     A'        A'  (1)
  124    82          10.5867074724         288.0789559765     A'        A'  (1)
  125   147          12.6754393124         344.9162388920     A''       A'' (2)
  126    83          12.7067746139         345.7689157952     A'        A'  (1)
  127    84          13.1716342700         358.4183901244     A'        A'  (1)
  128    85          18.2179874879         495.7366423095     A'        A'  (1)
  129   148          26.0350160593         708.4488038138     A''       A'' (2)
  130    86          26.1593664009         711.8325486348     A'        A'  (1)
  131    87          26.5493766137         722.4452660676     A'        A'  (1)
  132    88          28.6387272733         779.2993879227     A'        A'  (1)
  133   149          36.8948800613        1003.9607268453     A''       A'' (2)
  134    89          36.8958152327        1003.9861741520     A'        A'  (1)
  135    90          36.8967294383        1004.0110509504     A'        A'  (1)
  136   150          36.8974782101        1004.0314260681     A''       A'' (2)
  137   151          36.9037045985        1004.2008547098     A''       A'' (2)
  138    91          36.9038994286        1004.2061563057     A'        A'  (1)
  139    92          36.9097212723        1004.3645767285     A'        A'  (1)
  140   152          43.8524422139        1193.2856181079     A''       A'' (2)
  141    93          43.8610400731        1193.5195777519     A'        A'  (1)
  142    94          43.8781257258        1193.9845019973     A'        A'  (1)
  143   153          43.8912340044        1194.3411963929     A''       A'' (2)
  144    95          44.0386398739        1198.3523140219     A'        A'  (1)
  145   154          46.4807663644        1264.8059542687     A''       A'' (2)
  146    96          46.4848672336        1264.9175445904     A'        A'  (1)
  147   155          46.5060374814        1265.4936163223     A''       A'' (2)
  148    97          46.5199343974        1265.8717706301     A'        A'  (1)
  149    98          46.6093674594        1268.3053679703     A'        A'  (1)
  150   156          55.0134444583        1496.9919293081     A''       A'' (2)
  151    99          55.0496897521        1497.9782138955     A'        A'  (1)
  152   100          55.5934221355        1512.7739242462     A'        A'  (1)
  153   101         103.7312809241        2822.6716557998     A'        A'  (1)
  154   157         138.1988913756        3760.5830186764     A''       A'' (2)
  155   102         138.2867663887        3762.9742193481     A'        A'  (1)
  156   103         138.5639058799        3770.5155683006     A'        A'  (1)
  157   104         149.2787382255        4062.0809793236     A'        A'  (1)


  VSCF finished.

 @CHECKOUT-I, Total execution time (CPU/WALL):       78.99/      15.64 seconds.
--executable xvscf finished with status     0 in       15.67 seconds (walltime).
 --invoking executable--
/home/asmola/.local/bin/xvtran
 @GETMEM-I,  Allocated    3814 MB of main memory.
  Full RHF integral transformation
  Transformation of IIII integrals :
  1 pass through the AO integral file was required.
    13879296 AO integrals were read.
    15933126 MO integrals were written to HF2.
  Transformation of IIJJ integrals :
  1 pass through the AO integral file was required.
     6738387 AO integrals were read.
     7813260 MO integrals were written to HF2.
  Transformation of IJIJ integrals :
  1 pass through the AO integral file was required.
    13006421 AO integrals were read.
    15193828 MO integrals were written to HF2.
  Summary of active molecular orbitals: 
------------------------------------------------------------------------
 
  Index      Eigenvalue    Symmetry    Index      Eigenvalue    Symmetry
------------------------------------------------------------------------
     1      -104.8907247        1        80         7.0781813        1
     2       -20.6748033        1        81         7.1754221        1
     3       -10.6098723        1        82         7.6231675        1
     4        -8.0763691        1        83        10.3533647        1
     5        -8.0745133        1        84        10.4104184        1
     6        -1.3477491        1        85        10.5867075        1
     7        -1.0270899        1        86        12.7067746        1
     8        -0.5926549        1        87        13.1716343        1
     9        -0.5504851        1        88        18.2179875        1
    10        -0.3909785        1        89        26.1593664        1
    11        -8.0741894        2        90        26.5493766        1
    12        -0.6033534        2        91        28.6387273        1
    13        -0.4369993        2        92        36.8958152        1
    14        -0.0944004        1        93        36.8967294        1
    15         0.0512226        1        94        36.9038994        1
    16         0.0757639        1        95        36.9097213        1
    17         0.1177092        1        96        43.8610401        1
    18         0.1420066        1        97        43.8781257        1
    19         0.1620125        1        98        44.0386399        1
    20         0.1757787        1        99        46.4848672        1
    21         0.2273752        1       100        46.5199344        1
    22         0.2678804        1       101        46.6093675        1
    23         0.2947679        1       102        55.0496898        1
    24         0.3428906        1       103        55.5934221        1
    25         0.3805533        1       104       103.7312809        1
    26         0.4508186        1       105       138.2867664        1
    27         0.5085497        1       106       138.5639059        1
    28         0.5725158        1       107       149.2787382        1
    29         0.6271672        1       108         0.1175569        2
    30         0.6603052        1       109         0.1878634        2
    31         0.7407510        1       110         0.2404638        2
    32         0.7660002        1       111         0.3610457        2
    33         0.7804227        1       112         0.4249322        2
    34         0.8150251        1       113         0.6190748        2
    35         0.9104394        1       114         0.7093338        2
    36         0.9217367        1       115         0.7803079        2
    37         0.9710690        1       116         0.7965901        2
    38         0.9921957        1       117         0.8754279        2
    39         1.0106042        1       118         0.9295577        2
    40         1.0308436        1       119         0.9821865        2
    41         1.0794995        1       120         1.0356051        2
    42         1.1168924        1       121         1.1460452        2
    43         1.1871516        1       122         1.2202733        2
    44         1.2480594        1       123         1.3250069        2
    45         1.4093434        1       124         1.5222445        2
    46         1.5228875        1       125         2.1250232        2
    47         1.6114806        1       126         2.2199447        2
    48         1.6926358        1       127         2.2801755        2
    49         1.7624764        1       128         2.3141265        2
    50         2.1331702        1       129         2.4290130        2
    51         2.2464795        1       130         2.4759964        2
    52         2.3032126        1       131         2.5025113        2
    53         2.3164706        1       132         2.9001082        2
    54         2.3439343        1       133         3.0509432        2
    55         2.3728562        1       134         3.0853178        2
    56         2.4521852        1       135         3.3690676        2
    57         2.4827527        1       136         3.7763335        2
    58         2.5468981        1       137         3.8378769        2
    59         2.7982906        1       138         3.9942639        2
    60         2.9246611        1       139         4.1798662        2
    61         2.9722906        1       140         6.5301817        2
    62         3.0549705        1       141         6.5776800        2
    63         3.1198814        1       142         6.7645347        2
    64         3.1927660        1       143         7.0445148        2
    65         3.3747894        1       144         7.1623516        2
    66         3.3831877        1       145        10.3461612        2
    67         3.7803903        1       146        10.3855624        2
    68         3.8039154        1       147        12.6754393        2
    69         3.9075850        1       148        26.0350161        2
    70         3.9899194        1       149        36.8948801        2
    71         4.0364089        1       150        36.8974782        2
    72         4.2118954        1       151        36.9037046        2
    73         4.5664286        1       152        43.8524422        2
    74         5.1093344        1       153        43.8912340        2
    75         5.8105701        1       154        46.4807664        2
    76         6.5606135        1       155        46.5060375        2
    77         6.6457084        1       156        55.0134445        2
    78         6.8049085        1       157       138.1988914        2
    79         6.8823289        1
------------------------------------------------------------------------
  -104.890724659982       -20.6748032847925       -10.6098722884392     
  -8.07636908829846       -8.07451326147966       -1.34774913064373     
  -1.02708988384908      -0.592654917428181      -0.550485078004775     
 -0.390978488669119       -8.07418939406687      -0.603353361197172     
 -0.436999305941513      -9.440036449834083E-002  5.122259712341586E-002
  7.576394624612834E-002  0.117709213749754       0.142006586381292     
  0.162012476852277       0.175778653144824       0.227375210743676     
  0.267880410007287       0.294767934018861       0.342890618541224     
  0.380553257844912       0.450818563108191       0.508549707928888     
  0.572515818263447       0.627167231848451       0.660305193123044     
  0.740751040817698       0.766000205542706       0.780422725288350     
  0.815025070322988       0.910439402300641       0.921736656085583     
  0.971068958889127       0.992195724976563        1.01060416769883     
   1.03084358211592        1.07949949095535        1.11689241302079     
   1.18715160537197        1.24805938190925        1.40934342736561     
   1.52288746214205        1.61148055141593        1.69263579948619     
   1.76247638577107        2.13317017502923        2.24647951133901     
   2.30321257929556        2.31647056635923        2.34393430023021     
   2.37285618118282        2.45218524817787        2.48275268001100     
   2.54689806231038        2.79829063643950        2.92466114139181     
   2.97229060251372        3.05497049117703        3.11988141178436     
   3.19276596505489        3.37478941272631        3.38318773687405     
   3.78039031179349        3.80391540029817        3.90758500026130     
   3.98991936791277        4.03640891967445        4.21189542568729     
   4.56642857667415        5.10933437578855        5.81057014726706     
   6.56061350834554        6.64570842949848        6.80490849157350     
   6.88232887845608        7.07818133533495        7.17542213664450     
   7.62316754111354        10.3533646640278        10.4104184300079     
   10.5867074724499        12.7067746138614        13.1716342699582     
   18.2179874878955        26.1593664008586        26.5493766137448     
   28.6387272733347        36.8958152326811        36.8967294382543     
   36.9038994285637        36.9097212723308        43.8610400730997     
   43.8781257257678        44.0386398738531        46.4848672335580     
   46.5199343973871        46.6093674594385        55.0496897521024     
   55.5934221354671        103.731280924136        138.286766388660     
   138.563905879943        149.278738225547       0.117556922349443     
  0.187863416820168       0.240463784890753       0.361045685471637     
  0.424932209783897       0.619074831850002       0.709333840518349     
  0.780307944035925       0.796590107021441       0.875427907339073     
  0.929557701021146       0.982186487241189        1.03560508071246     
   1.14604517032590        1.22027328622091        1.32500691086586     
   1.52224452371678        2.12502319582292        2.21994473426230     
   2.28017549016296        2.31412653132082        2.42901300394094     
   2.47599638445774        2.50251134520872        2.90010820058671     
   3.05094315089557        3.08531780306928        3.36906760762815     
   3.77633354211817        3.83787686712301        3.99426390865314     
   4.17986618424601        6.53018173004407        6.57768004392859     
   6.76453467678601        7.04451477300993        7.16235163928687     
   10.3461612076131        10.3855624476634        12.6754393123577     
   26.0350160592643        36.8948800613109        36.8974782100978     
   36.9037045984892        43.8524422138672        43.8912340044033     
   46.4807663644431        46.5060374814417        55.0134444582529     
   138.198891375599     
 @CHECKOUT-I, Total execution time (CPU/WALL):       34.02/      19.12 seconds.
--executable xvtran finished with status     0 in       19.18 seconds (walltime).
 --invoking executable--
/home/asmola/.local/bin/xintprc
 @GETMEM-I,  Allocated    3814 MB of main memory.
  Processing integrals for CCSD calculation.
  @GMOIAA-I, Processing MO integrals for spin case AA.
  @GMOIAA-I, Generation of integral list completed.
                      TYPE                NUMBER
                      ----               --------
                      PPPP              27524020
                      PPPH               9932000
                      PPHH                900748
                      PHPH                491140
                      PHHH                 89950
                      HHHH                  2356

                     TOTAL              38940214

  @FORMT2-I, Second-order MP correlation energies:
            ------------------------------------------------
            E(SCF)                  =   -534.681101773706 a.u.
            E2(AA)                  =     -0.113506056912 a.u.
            E2(AB)                  =     -0.686059576455 a.u.
            E2(TOT)                 =     -0.913071690278 a.u.
            Total MP2 energy        =   -535.594173463985 a.u.
            ------------------------------------------------
   Largest T2 amplitudes for spin case AB:
       _       _                 _       _                 _       _
   i   j   a   b             i   j   a   b             i   j   a   b
-----------------------------------------------------------------------------
[ 10  10  14  14]-0.19366 [ 10   9  14  14]-0.08444 [  9  10  14  14]-0.08444
[  9   9  14  14]-0.07098 [  8   8  19  19]-0.04266 [  9   8  14  19]-0.03631
[  8   9  19  14]-0.03631 [ 10  10  15  14] 0.03547 [ 10  10  14  15] 0.03547
[  8   8  19  16] 0.02963 [  8   8  16  19] 0.02963 [ 10  10  23  14]-0.02606
[ 10  10  14  23]-0.02606 [  9   8  14  16] 0.02537 [  8   9  16  14] 0.02537
-----------------------------------------------------------------------------
   Norm of T2AB vector (  1799624 symmetry allowed elements):  0.4365322222.
-----------------------------------------------------------------------------
 @CHECKOUT-I, Total execution time (CPU/WALL):        6.23/      10.75 seconds.
--executable xintprc finished with status     0 in       10.88 seconds (walltime).
  calling xvcc 
 --invoking executable--
/home/asmola/.local/bin/xvcc
 @GETMEM-I,  Allocated    3814 MB of main memory.
   CCSD energy will be calculated.
   The total correlation energy is -0.913071690278 a.u.
   The total correlation energy is -0.885100960442 a.u.
  Convergence information after     1 iterations: 
  Largest element of residual vector :  0.56602045E-01.
  Largest element of DIIS residual   :  0.56602045E-01.
   The total correlation energy is -0.925833565245 a.u.
  Convergence information after     2 iterations: 
  Largest element of residual vector : -0.72950067E-01.
  Largest element of DIIS residual   : -0.52413605E-01.
   The total correlation energy is -0.920931170432 a.u.
  Convergence information after     3 iterations: 
  Largest element of residual vector : -0.32155125E-01.
  Largest element of DIIS residual   :  0.24787991E-01.
   The total correlation energy is -0.926236956151 a.u.
  Convergence information after     4 iterations: 
  Largest element of residual vector : -0.11342491E-01.
  Largest element of DIIS residual   :  0.28369109E-02.
   The total correlation energy is -0.928907997171 a.u.
  Convergence information after     5 iterations: 
  Largest element of residual vector :  0.31742921E-02.
  Largest element of DIIS residual   :  0.14299781E-02.
   The total correlation energy is -0.929038452608 a.u.
  Convergence information after     6 iterations: 
  Largest element of residual vector :  0.15728645E-02.
  Largest element of DIIS residual   :  0.15188191E-02.
   The total correlation energy is -0.929018796627 a.u.
  Convergence information after     7 iterations: 
  Largest element of residual vector :  0.71218587E-03.
  Largest element of DIIS residual   :  0.65744904E-03.
   The total correlation energy is -0.929047869079 a.u.
  Convergence information after     8 iterations: 
  Largest element of residual vector :  0.45182321E-03.
  Largest element of DIIS residual   :  0.21559650E-03.
   The total correlation energy is -0.929043816795 a.u.
  Convergence information after     9 iterations: 
  Largest element of residual vector :  0.19503077E-03.
  Largest element of DIIS residual   :  0.88531988E-04.
   The total correlation energy is -0.929053399436 a.u.
  Convergence information after    10 iterations: 
  Largest element of residual vector : -0.10443055E-03.
  Largest element of DIIS residual   : -0.99689695E-04.
   The total correlation energy is -0.929057230257 a.u.
  Convergence information after    11 iterations: 
  Largest element of residual vector :  0.54212469E-04.
  Largest element of DIIS residual   : -0.11479464E-04.
   The total correlation energy is -0.929057730422 a.u.
  Convergence information after    12 iterations: 
  Largest element of residual vector : -0.28942678E-04.
  Largest element of DIIS residual   :  0.12608142E-04.
   The total correlation energy is -0.929058726344 a.u.
  Convergence information after    13 iterations: 
  Largest element of residual vector : -0.39554123E-05.
  Largest element of DIIS residual   : -0.33614020E-05.
   The total correlation energy is -0.929059321292 a.u.
  Convergence information after    14 iterations: 
  Largest element of residual vector :  0.50281452E-05.
  Largest element of DIIS residual   :  0.25042539E-05.
   The total correlation energy is -0.929059066568 a.u.
  Convergence information after    15 iterations: 
  Largest element of residual vector : -0.13699791E-05.
  Largest element of DIIS residual   :  0.12321945E-05.
   The total correlation energy is -0.929059285826 a.u.
  Convergence information after    16 iterations: 
  Largest element of residual vector :  0.10314293E-05.
  Largest element of DIIS residual   : -0.74530849E-06.
   The total correlation energy is -0.929059218474 a.u.
  Convergence information after    17 iterations: 
  Largest element of residual vector :  0.55408413E-06.
  Largest element of DIIS residual   :  0.43751726E-06.
   The total correlation energy is -0.929059217389 a.u.
  Convergence information after    18 iterations: 
  Largest element of residual vector : -0.73792450E-06.
  Largest element of DIIS residual   : -0.22337442E-06.
   The total correlation energy is -0.929059215941 a.u.
  Convergence information after    19 iterations: 
  Largest element of residual vector :  0.13517676E-06.
  Largest element of DIIS residual   : -0.93592514E-07.
   The total correlation energy is -0.929059215050 a.u.
  Convergence information after    20 iterations: 
  Largest element of residual vector :  0.79011385E-07.
  Largest element of DIIS residual   :  0.33165367E-07.
   The total correlation energy is -0.929059213983 a.u.
  Convergence information after    21 iterations: 
  Largest element of residual vector : -0.40278298E-07.
  Largest element of DIIS residual   :  0.19385711E-07.
   The total correlation energy is -0.929059215702 a.u.
  Convergence information after    22 iterations: 
  Largest element of residual vector : -0.11026205E-07.
  Largest element of DIIS residual   :  0.95674999E-08.
   The total correlation energy is -0.929059214906 a.u.
  Convergence information after    23 iterations: 
  Largest element of residual vector :  0.84333003E-08.
  Largest element of DIIS residual   :  0.84969948E-08.
   The total correlation energy is -0.929059215588 a.u.
  Convergence information after    24 iterations: 
  Largest element of residual vector : -0.62258637E-08.
  Largest element of DIIS residual   : -0.38161147E-08.
   The total correlation energy is -0.929059215313 a.u.
  Convergence information after    25 iterations: 
  Largest element of residual vector :  0.68630349E-08.
[...]
  total norm contribution  9.209861404156193E-002
 oo  5.081935001028333E-003
 vv  -10.0605076118362     
 vo  0.425624807012219     
  Correlated perturbed 1-el contribution to DBOC  -9.62980086982293       cm**-1
  SUM_I |dc_I/dx|^2 contribution to DBOC   5.50425624890881       cm**-1
 
  current total DBOC   1954.42435951737       cm**-1
 First-order density matrix is being calculated  (Symmetry block 1, perturbation   3)
 Calculation of the contributions of <pq||rs> to dI(i,j)/dx required   2.1 seconds.
 Calculation of the contributions of <pq||rs> to dI(a,b)/dx required  10.7 seconds.
 Calculation of the contributions of <pq||rs> to dI(i,a)/dx required   6.2 seconds.
 First-order Z-vector equations are solved for 1 perturbation.
 Convergence reached after  28 iterations.
        U*G(pq,rs) contribution is being calculated
             (Symmetry block 1, perturbation   3)

 CCSD contribution to force constants 

        0.0000000000        0.0000000000        0.0000000000
        0.0000000000        0.0000000000        0.0000000000
        0.0000000000        0.0000000000        0.0000000000
        0.0000000000        0.0000000000        0.0000000000
        0.0000000000        0.0000000000        0.0000000000
        0.0000000000        0.0000000000        0.0000000000
       -0.2522024282       -0.5471850721        0.1672056703
        0.4985171505        0.0849967579        0.0486679216
        0.0000000000        0.0000000000        0.0000000000
        0.0000000000        0.0000000000        0.0000000000
        0.0000000000        0.0000000000        0.0000000000
        0.0000000000        0.0000000000        0.0000000000
        0.0000000000        0.0000000000        0.0000000000
        0.0000000000        0.0000000000        0.0000000000
        0.0000000000        0.0000000000        0.0000000000
        0.0000000000        0.0000000000        0.0000000000
        0.0000000000        0.0000000000        0.0000000000
        0.0000000000        0.0000000000        0.0000000000
        0.0000000000        0.0000000000        0.0000000000
        0.0000000000        0.0000000000        0.0000000000
        0.0000000000        0.0000000000        0.0000000000
        0.0000000000        0.0000000000        0.0000000000
        0.0000000000        0.0000000000        0.0000000000
        0.0000000000        0.0000000000        0.0000000000
        0.0000000000        0.0000000000        0.0000000000
        0.0000000000        0.0000000000        0.0000000000
        0.0000000000        0.0000000000        0.0000000000

 CCSD contribution to dipole derivatives 

        0.0000000000        0.0000000000        0.0844672059
        0.0000000000        0.0000000000        0.0000000000
        0.0000000000        0.0000000000        0.0000000000
        0.0000000000        0.0000000000       -0.0086149849
        0.0000000000        0.0000000000        0.0000000000
        0.0000000000        0.0000000000        0.0000000000
        0.0000000000        0.0000000000        0.0000000000
        0.0000000000        0.0000000000        0.0000000000
        0.0000000000        0.0000000000        0.0000000000
 @CHECKOUT-I, Total execution time (CPU/WALL):      916.86/     229.20 seconds.
--executable xsdcc finished with status     0 in      229.37 seconds (walltime).
 --invoking executable--
/home/asmola/.local/bin/xanti
 @GETMEM-I,  Allocated    3814 MB of main memory.
 CCSD MO derivative gammas will be sorted to Mulliken order.
 @CHECKOUT-I, Total execution time (CPU/WALL):        7.01/       5.60 seconds.
--executable xanti finished with status     0 in        5.74 seconds (walltime).
 --invoking executable--
/home/asmola/.local/bin/xbcktrn
 @GETMEM-I,  Allocated    3814 MB of main memory.
 CCSD MO derivative gammas will be transformed to the AO basis.
 @CHECKOUT-I, Total execution time (CPU/WALL):       17.83/       4.15 seconds.
--executable xbcktrn finished with status     0 in        4.23 seconds (walltime).
 --invoking executable--
/home/asmola/.local/bin/xvdint
 @GETMEM-I,  Allocated    3814 MB of main memory.
 One- and two-electron integral derivatives are calculated
 for RHF-CC/MBPT hessians and dipole derivatives.
 Spherical gaussians are used.
  magnet F F
 Evaluation of 2el integral derivatives

                      Two-electron integral gradient
                      ------------------------------

                         O #1 x     0.0023979688
                         O #1 y     0.0103158939
                         H #2 x    -0.0045038605
                         H #2 y    -0.0086717400
                         CL#3 x     0.0021058917
                         CL#3 y    -0.0016441539


 O #1       0.0023979688            0.0103158939            0.0000000000
 H #2      -0.0045038605           -0.0086717400            0.0000000000
 CL#3       0.0021058917           -0.0016441539            0.0000000000


 Evaluation of 2e integral derivatives required  135.32 seconds.
  contribution to Hessian
        0.0023979688        0.0103158939       -0.0045038605
       -0.0086717400        0.0021058917       -0.0016441539
        0.0000000000        0.0000000000        0.0000000000
 @CHECKOUT-I, Total execution time (CPU/WALL):      135.43/      22.59 seconds.
--executable xvdint finished with status     0 in       23.79 seconds (walltime).
 --invoking executable--
/home/asmola/.local/bin/xsdcc
 @GETMEM-I,  Allocated    3814 MB of main memory.
 Vibrational frequencies and infrared intensities are calculated
 at the CCSD level within the harmonic approximation.
 CPHF coefficients for occ-occ block: U^x(i,j) = -1/2 S^x(i,j)
 CPHF coefficients for vrt-vrt block: U^x(a,b) = -1/2 S^x(a,b)
 Transformation of derivative integrals from AO to MO basis:
 RHF transformation
 Transformation of DIIII integral derivatives.
 1 pass through the AO integral derivative file was needed.
   6986038 AO integral derivatives were read from file DIIII.
 Transformation of first index required   24.9 seconds.
 Transformation of remaining indices required   15.2 seconds.
  95829467 MO integral derivatives were written to file DERINT.
 Transformation of DIIJJ integral derivatives.
 1 pass through the AO integral derivative file was needed.
   3205359 AO integral derivatives were read from file DIIJJ.
 Transformation of first index required    4.7 seconds.
 Transformation of remaining indices required    7.5 seconds.
  48774184 MO integral derivatives were written to file DERINT.
 Transformation of DIJIJ integral derivatives.
 1 pass through the AO integral derivative file was needed.
   6147821 AO integral derivatives were read from file DIJIJ.
 Transformation of first index required   12.3 seconds.
 Transformation of remaining indices required   20.3 seconds.
  97548368 MO integral derivatives were written to file DERINT.
        MO basis integral derivatives are being calculated
             (Symmetry block 1, perturbation   4)
 First derivative of the wavefunction is calculated (Symmetry block 1, perturbation   4)
 Resorts of perturbed amplitudes and integrals required   0.5 seconds.
 Construction of <Phi|(dH_N/dx exp(T))c|0> required  14.3 seconds.
 Starting iterative solution of the perturbed CC equations.
 The DIIS procedure is used to accelerate convergence.
 Convergence criterion is 10**(-7).
 Maximum number of iterations is 100.
 Convergence information after     1 iterations: 
 Largest element of residual vector : -0.55815831E-01.
 Largest element of DIIS residual   : -0.55815831E-01.
 Convergence information after     2 iterations: 
 Largest element of residual vector :  0.35573523E-01.
 Largest element of DIIS residual   :  0.30568714E-01.
 Convergence information after     3 iterations: 
 Largest element of residual vector : -0.14915328E-01.
 Largest element of DIIS residual   :  0.92874902E-02.
 Convergence information after     4 iterations: 
 Largest element of residual vector :  0.73424070E-02.
 Largest element of DIIS residual   :  0.40782855E-02.
 Convergence information after     5 iterations: 
 Largest element of residual vector :  0.27540856E-02.
 Largest element of DIIS residual   : -0.82113676E-03.
 Convergence information after     6 iterations: 
 Largest element of residual vector : -0.64162388E-03.
 Largest element of DIIS residual   : -0.54557733E-03.
 Convergence information after     7 iterations: 
 Largest element of residual vector : -0.33863717E-03.
 Largest element of DIIS residual   : -0.29117558E-03.
 Convergence information after     8 iterations: 
 Largest element of residual vector : -0.22773350E-03.
 Largest element of DIIS residual   : -0.10276308E-03.
 Convergence information after     9 iterations: 
 Largest element of residual vector :  0.84969722E-04.
 Largest element of DIIS residual   :  0.91339915E-04.
 Convergence information after    10 iterations: 
 Largest element of residual vector :  0.26270058E-04.
 Largest element of DIIS residual   : -0.22035464E-04.
 Convergence information after    11 iterations: 
 Largest element of residual vector :  0.24150855E-04.
 Largest element of DIIS residual   :  0.16604286E-04.
 Convergence information after    12 iterations: 
 Largest element of residual vector :  0.10905532E-04.
 Largest element of DIIS residual   : -0.10257848E-04.
 Convergence information after    13 iterations: 
 Largest element of residual vector :  0.62900642E-05.
 Largest element of DIIS residual   :  0.34977690E-05.
 Convergence information after    14 iterations: 
 Largest element of residual vector : -0.29399089E-05.
 Largest element of DIIS residual   : -0.27725897E-05.
 Convergence information after    15 iterations: 
 Largest element of residual vector :  0.15385987E-05.
 Largest element of DIIS residual   : -0.11790864E-05.
 Convergence information after    16 iterations: 
 Largest element of residual vector :  0.11555217E-05.
 Largest element of DIIS residual   :  0.10989834E-05.
 Convergence information after    17 iterations: 
 Largest element of residual vector : -0.55070206E-06.
 Largest element of DIIS residual   : -0.33410085E-06.
 Convergence information after    18 iterations: 
 Largest element of residual vector :  0.45813939E-06.
 Largest element of DIIS residual   :  0.15125629E-06.
 Convergence information after    19 iterations: 
 Largest element of residual vector :  0.17591334E-06.
 Largest element of DIIS residual   : -0.80196816E-07.
 Perturbed amplitude equations converged in    19 iterations.
  Dominant contributions to perturbed wavefunction:
   10   10   14   14   0.1639400958 ABAB
   10   10   46   14   0.1260903649 ABAB
   10   10   14   46   0.1260903649 ABAB
   10   10   73   14   0.1246249862 ABAB
   10   10   14   73   0.1246249862 ABAB
   10   10   48   14  -0.1178122496 ABAB
   10   10   14   48  -0.1178122496 ABAB
   10   10   47   14   0.1084291854 ABAB
   10   10   14   47   0.1084291854 ABAB
   10   10   42   14   0.0837993860 ABAB
   10   10   14   42   0.0837993860 ABAB
   10   10   37   14   0.0808056556 ABAB
   10   10   14   37   0.0808056556 ABAB
   10   10   28   14  -0.0769084102 ABAB
   10   10   14   28  -0.0769084102 ABAB
   10   10   52   14   0.0719483840 ABAB
   10   10   14   52   0.0719483840 ABAB
   10   10   23   14   0.0717673255 ABAB
   10   10   14   23   0.0717673255 ABAB
   10   10   32   14   0.0610810120 ABAB
  Total CCSD gradient is    0.034198732164313.
  norm of converged amps   0.714538636761693     
 Starting iterative solution of the perturbed Lambda equations.
 The DIIS procedure is used to accelerate convergence.
 Convergence criterion is 10**(-7).
 Maximum number of iterations is 100.
 Convergence information after     1 iterations: 
 Largest element of residual vector : -0.50206692E-01.
 Largest element of DIIS residual   : -0.50206692E-01.
 Convergence information after     2 iterations: 
 Largest element of residual vector :  0.34562703E-01.
 Largest element of DIIS residual   :  0.18726449E-01.
 Convergence information after     3 iterations: 
 Largest element of residual vector : -0.11070731E-01.
 Largest element of DIIS residual   :  0.53876086E-02.
 Convergence information after     4 iterations: 
 Largest element of residual vector :  0.43019285E-02.
 Largest element of DIIS residual   :  0.32275766E-02.
 Convergence information after     5 iterations: 
 Largest element of residual vector :  0.17561661E-02.
 Largest element of DIIS residual   : -0.69714048E-03.
 Convergence information after     6 iterations: 
 Largest element of residual vector : -0.56591357E-03.
 Largest element of DIIS residual   : -0.46449924E-03.
 Convergence information after     7 iterations: 
 Largest element of residual vector : -0.29971618E-03.
 Largest element of DIIS residual   : -0.18450628E-03.
 Convergence information after     8 iterations: 
 Largest element of residual vector : -0.19611933E-03.
 Largest element of DIIS residual   : -0.92654394E-04.
 Convergence information after     9 iterations: 
 Largest element of residual vector : -0.69309085E-04.
 Largest element of DIIS residual   :  0.68284104E-04.
 Convergence information after    10 iterations: 
 Largest element of residual vector : -0.24414111E-04.
 Largest element of DIIS residual   : -0.16386606E-04.
 Convergence information after    11 iterations: 
 Largest element of residual vector :  0.22144516E-04.
 Largest element of DIIS residual   :  0.12005462E-04.
 Convergence information after    12 iterations: 
 Largest element of residual vector : -0.74356316E-05.
 Largest element of DIIS residual   :  0.76012091E-05.
 Convergence information after    13 iterations: 
 Largest element of residual vector :  0.49926631E-05.
 Largest element of DIIS residual   :  0.30442425E-05.
 Convergence information after    14 iterations: 
 Largest element of residual vector : -0.25495262E-05.
 Largest element of DIIS residual   : -0.20856973E-05.
 Convergence information after    15 iterations: 
 Largest element of residual vector :  0.12865666E-05.
 Largest element of DIIS residual   : -0.76898272E-06.
 Convergence information after    16 iterations: 
 Largest element of residual vector : -0.76787661E-06.
 Largest element of DIIS residual   :  0.68580615E-06.
 Convergence information after    17 iterations: 
 Largest element of residual vector : -0.42725353E-06.
 Largest element of DIIS residual   : -0.35961562E-06.
 Convergence information after    18 iterations: 
 Largest element of residual vector :  0.41381367E-06.
 Largest element of DIIS residual   :  0.16405485E-06.
 Convergence information after    19 iterations: 
 Largest element of residual vector :  0.16555786E-06.
 Largest element of DIIS residual   : -0.72299136E-07.
 Perturbed Lambda equations converged in    19 iterations.
  Dominant contributions to perturbed wavefunction:
   10   10   46   14   0.0995976139 ABAB
   10   10   14   46   0.0995976139 ABAB
   10   10   73   14   0.0979749781 ABAB
   10   10   14   73   0.0979749781 ABAB
   10   10   14   14   0.0934154454 ABAB
   10   10   48   14  -0.0930904182 ABAB
   10   10   14   48  -0.0930904182 ABAB
   10   10   47   14   0.0855891147 ABAB
   10   10   14   47   0.0855891147 ABAB
   10   10   42   14   0.0668598723 ABAB
   10   10   14   42   0.0668598723 ABAB
   10   10   28   14  -0.0646281193 ABAB
   10   10   14   28  -0.0646281193 ABAB
   10   10   37   14   0.0631540458 ABAB
   10   10   14   37   0.0631540458 ABAB
   10   10   52   14   0.0563897147 ABAB
   10   10   14   52   0.0563897147 ABAB
   10   10   23   14   0.0521731695 ABAB
   10   10   14   23   0.0521731695 ABAB
   10   10   38   14  -0.0485539980 ABAB
  Total CCSD gradient is    0.003242651174310.
        The DBOC first-order density matrix is being calculated 
             (Symmetry block 1, perturbation   4)
 term  0.418662446592626     
 final tnorm1 -7.202628451222236E-002
  <0|L dT/dx|0> -7.202628451222236E-002
  norm contr. I: |<0|L dT/dx|0>|^2   5.187785660635602E-003
  norm contr. II: <0|[nabla(1+L)e-T][nabla e^T]|0>  0.418662446592626     
  total norm contribution  0.423850232253262     
 oo  1.029113273125475E-002
 vv  -47.2755490976806     
 vo  0.202884315940831     
  Correlated perturbed 1-el contribution to DBOC  -47.0623736490085       cm**-1
  SUM_I |dc_I/dx|^2 contribution to DBOC   25.3313289647187       cm**-1
 
  current total DBOC   1932.69331483308       cm**-1
 First-order density matrix is being calculated  (Symmetry block 1, perturbation   4)
 Calculation of the contributions of <pq||rs> to dI(i,j)/dx required   2.0 seconds.
 Calculation of the contributions of <pq||rs> to dI(a,b)/dx required  10.3 seconds.
 Calculation of the contributions of <pq||rs> to dI(i,a)/dx required   6.4 seconds.
 First-order Z-vector equations are solved for 1 perturbation.
 Convergence reached after  26 iterations.
        U*G(pq,rs) contribution is being calculated
             (Symmetry block 1, perturbation   4)

 CCSD contribution to force constants 

        0.0000000000        0.0000000000        0.0000000000
        0.0000000000        0.0000000000        0.0000000000
        0.0000000000        0.0000000000        0.0000000000
        0.0000000000        0.0000000000        0.0000000000
        0.0000000000        0.0000000000        0.0000000000
        0.0000000000        0.0000000000        0.0000000000
        0.0000000000        0.0000000000        0.0000000000
        0.0000000000        0.0000000000        0.0000000000
        0.0000000000        0.0000000000        0.0000000000
       -0.5196704950       -1.2546520097        0.4802589723
        1.1445311863        0.0394115227        0.1101208235
        0.0000000000        0.0000000000        0.0000000000
        0.0000000000        0.0000000000        0.0000000000
        0.0000000000        0.0000000000        0.0000000000
        0.0000000000        0.0000000000        0.0000000000
        0.0000000000        0.0000000000        0.0000000000
        0.0000000000        0.0000000000        0.0000000000
        0.0000000000        0.0000000000        0.0000000000
        0.0000000000        0.0000000000        0.0000000000
        0.0000000000        0.0000000000        0.0000000000
        0.0000000000        0.0000000000        0.0000000000
        0.0000000000        0.0000000000        0.0000000000
        0.0000000000        0.0000000000        0.0000000000
        0.0000000000        0.0000000000        0.0000000000
        0.0000000000        0.0000000000        0.0000000000
        0.0000000000        0.0000000000        0.0000000000
        0.0000000000        0.0000000000        0.0000000000

 CCSD contribution to dipole derivatives 

        0.0000000000        0.0000000000        0.0000000000
        0.1874825279        0.0000000000        0.0000000000
        0.0000000000        0.0000000000        0.0000000000
        0.0000000000        0.0000000000        0.0000000000
        0.0851371225        0.0000000000        0.0000000000
        0.0000000000        0.0000000000        0.0000000000
        0.0000000000        0.0000000000        0.0000000000
        0.0000000000        0.0000000000        0.0000000000
        0.0000000000        0.0000000000        0.0000000000
 @CHECKOUT-I, Total execution time (CPU/WALL):      924.55/     224.58 seconds.
--executable xsdcc finished with status     0 in      224.75 seconds (walltime).
 --invoking executable--
/home/asmola/.local/bin/xanti
 @GETMEM-I,  Allocated    3814 MB of main memory.
 CCSD MO derivative gammas will be sorted to Mulliken order.
 @CHECKOUT-I, Total execution time (CPU/WALL):        7.17/       5.86 seconds.
--executable xanti finished with status     0 in        6.00 seconds (walltime).
 --invoking executable--
/home/asmola/.local/bin/xbcktrn
 @GETMEM-I,  Allocated    3814 MB of main memory.
 CCSD MO derivative gammas will be transformed to the AO basis.
--executable xbcktrn finished with status     1 in        3.78 seconds (walltime).
  This computation required                         1392.62 seconds (walltime).
