 --invoking executable--
/home/asmola/.local/bin/xjoda


   *************************************************************************
         <<<     CCCCCC     CCCCCC   |||     CCCCCC     CCCCCC   >>>
       <<<      CCC        CCC       |||    CCC        CCC         >>>
      <<<      CCC        CCC        |||   CCC        CCC            >>>
    <<<        CCC        CCC        |||   CCC        CCC              >>>
      <<<      CCC        CCC        |||   CCC        CCC            >>>
       <<<      CCC        CCC       |||    CCC        CCC         >>>
         <<<     CCCCCC     CCCCCC   |||     CCCCCC     CCCCCC   >>>
   *************************************************************************

     ****************************************************************
     * CFOUR Coupled-Cluster techniques for Computational Chemistry *
     ****************************************************************
 

   Department of Chemistry                Institut fuer Physikalische Chemie
   University of Florida                  Universitaet Mainz
   Gainesville, FL 32611, USA             D-55099 Mainz, Germany

   Department of Chemistry                Fakultaet fuer Chemie und Biowiss.
   Johns Hopkins University               Karlsruher Institut fuer Technologie
   Baltimore, MD 21218, USA               D-76131 Karlsruhe, Germany

   Department of Chemistry                Department of Physical Chemistry
   Southern Methodist University          Eotvos Lorand University
   Dallas, TX 75275, USA                  H-1053 Budapest, Hungary

 
                       Version 2.1
 
                     vincent.theory.phys.ucl.ac.uk                     
                     Sat 19 Jul 09:26:43 BST 2025                      
                     integer*8 version is running
 
********************************************************************************
*                          Input from ZMAT file                                *
********************************************************************************
Hypochlorous acid higher-order corrections                                      
O                                                                               
H 1 ROH                                                                         
CL 1 ROCL 2 A                                                                   
                                                                                
ROH=0.96                                                                        
ROCL=1.683                                                                      
A=103.000000                                                                    
                                                                                
*CFOUR(CALC=CCSDT,BASIS=AUG-PVTZ,SCF_CONV=11                                    
CC_CONV=12,FROZEN_CORE=ON,MEMORY=5000000000)                                    
                                                                                
********************************************************************************
    -------------------------------------------------------------------
                    CFOUR Control Parameters 
    -------------------------------------------------------------------
        External           Internal           Value            Units
          Name               Name
    -------------------------------------------------------------------
       ABCDTYPE             IABCDT         STANDARD    [  0]    ***   
       ANHARMONIC           IANHAR         OFF         [  0]    ***   
       ANH_ALGORIT          IANALG         STANDARD    [  0]    ***   
       ANH_DERIVAT          IANDER         SECOND      [  1]    ***   
       ANH_MODE             ANHMOD         VIBRATION   [  0]    ***   
       ANH_STEPSIZ          ICUBST             50000          x 10-6  
       ANH_SYMMETR          IANHSM         ABELIAN     [  0]    ***   
       AO_LADDERS           IAOLAD         SINGLEPASS  [  1]    ***   
       AV_SCF               IAVSCF         OFF         [  0]    ***   
       BASIS                IBASIS         AUG-PVTZ    [ 34]    ***   
       BOTHVECTORS          BOTHVC         OFF         [  0]    ***   
       BOX_POTENT           IPIAB          OFF         [  0]    ***   
       BREIT                IBREIT         OFF         [  0]    ***   
       BRUCK_CONV           IBRTOL          10D-  4             ***   
       BRUECKNER            IBRKNR         OFF         [  0]    ***   
       BUFFERSIZE           IBUFFS              4096            ***   
       CACHE_RECS           ICHREC             10               ***   
       CALCLEVEL            ICLLVL         CCSDT       [ 18]    ***   
       CCORBOPT             ICCORB         OFF         [  0]  x 0.01  
       CC_CONV              ICCCNV          10D- 12             ***   
       CC_EXPORDER          ICCEOR              5               ***   
       CC_EXTRAPOL          ICCEXT         DIIS        [  1]    ***   
       CC_GUESS             ICCGES         MP2         [  0]    ***   
       CC_MAXCYC            ICCCYC            100              cycles 
       CC_PROGRAM           ICCPRO         VCC         [  0]    ***   
       CHARGE               ICHRGE              0               ***   
       CHOLESKY             ICHOLE         OFF         [  0]    ***   
       CIS_CONV             ICISTL              5               ***   
       COMM_SIZE            IPSIZE            ***               ***   
       CONSTANT             ICONST         OLD         [  1]    ***   
       CONTINUUM            ICONTU         NONE        [  0]    ***   
       CONTRACTION          ICNTYP         GENERAL     [  1]    ***   
       COORDINATES          ICOORD         INTERNAL    [  0]    ***   
       CPHF_CONVER          ICPHFT          10D- 16             ***   
       CPHF_MAXCYC          ICPHFC             64              cycles 
       CUBIC                ICUBIC         OFF         [  0]    ***   
       CURVILINEAR          ICURVY         OFF         [  0]    ***   
       DBOC                 IDBOC          OFF         [  0]    ***   
       DCT                  IDCT           OFF         [  0]    ***   
       DERIV_LEV            IDRLVL         ZERO        [  0]    ***   
       DEVMEM_SIZE          IDVMEM          50000000           MByte  
       DIAG_MRCC            IEOMST          10D-  0             ***   
       DIFF_TYPE            IDIFTY         RELAXED     [  0]    ***   
       DIRECT               IDIRCT         OFF         [  0]    ***   
       DROPMO               IDRPMO      NONE         
       ECP                  IECP           OFF         [  0]    ***   
       EIGENVECTOR          IVEC                1               ***   
       EL_ANHARM            IELANH         OFF         [  0]    ***   
       EOMFOLLOW            IEOMSR         ENERGY      [  0]    ***   
       EOMIP                IEOMIP         OFF         [  0]    ***   
       EOMLEVEL             HBARFM         SAME        [  0]    ***   
       EOM_MRCC             IMRCCE         NEW         [  1]    ***   
       EOM_NONIT            EOMNON         OFF         [  0]    ***   
       EOM_NSING            IEOMSI          10D-  0             ***   
       EOM_NSTATES          IMRCCD         DAVIDSON    [  0]    ***   
       EOM_NTRIP            IEOMTR          10D-  0             ***   
       EOM_ORDER            IEXORD         ENERGY      [  0]    ***   
       EOM_PROPSTA          IEOMST              0               ***   
       ESTATE_CONV          IEXTOL          10D-  5             ***   
       ESTATE_DIAG          IEXDIG         ITERATIVE   [  0]    ***   
       ESTATE_LOCK          IESLOC         ON          [  1]    ***   
       ESTATE_MAXC          IEXMXC             40               ***   
       ESTATE_PROP          IEXPRP         OFF         [  0]    ***   
       EVAL_HESS            IRECAL              0            # of cyc.
       EXCITATION           IEXCIT              0               ***   
       EXCITE               IEXCIT         NONE        [  0]    ***   
       EXTERN_POT           IEXPOT         OFF         [  0]    ***   
       FCGRADNEW            IFCGNW         OFF         [  0]    ***   
       FC_FIELD             IFINFC              0             x 10-6  
       FD_CALTYPE           IFDCAL         GRADONLY    [  0]    ***   
       FD_PROJECT           IFDPRJ         OFF         [  1]    ***   
       FD_STEPSIZE          IDISFD              0            10-4 bohr
       FD_USEGROUP          IFDGRP         FULL        [  0]    ***   
       FILE_RECSIZ          IFLREC              4096           words  
       FINITE_PERT          IFIPER              0             x 10-6  
       FIXGEOM              IFIXGM         OFF         [  0]    ***   
       FOCK                 IFOCK          AO          [  1]    ***   
       FREQ_ALGORI          IVIALG         STANDARD    [  0]    ***   
       FROZEN_CORE          IFROCO         ON          [  1]    ***   
       GAMMA_ABCD           IGABCD         STORE       [  0]    ***   
       GAMMA_ABCI           IGABCI         STORE       [  0]    ***   
       GENBAS_1             IGNBS1              0               ***   
       GENBAS_2             IGNBS2              0               ***   
       GENBAS_3             IGNBS3              0               ***   
       GENBAS_4             IGNBS4              0               ***   
       GEO_CONV             ICONTL              5              H/bohr 
       GEO_MAXCYC           IOPTCY             50               ***   
       GEO_MAXSTEP          IMXSTP            300            millibohr
       GEO_METHOD           INR            SINGLE_POINT[  5]    ***   
       GIAO                 IGIAO          OFF         [  1]    ***   
       GIMIC                IGIMIC         OFF         [  0]    ***   
       GRID                 IGRID          OFF         [  0]    ***   
       GRID_ALGO            IGALGO         SERIAL      [  0]    ***   
       GUESS                IGUESS         MOREAD      [  0]    ***   
       HBAR                 IHBAR          OFF         [  0]    ***   
       HESS_TYPE            IHESTP         SCF         [  0]    ***   
       HF2_FILE             IHF2Fl         USE         [  1]    ***   
       HFSTABILITY          ISTABL         OFF         [  0]    ***   
       INCORE               INCORE         OFF         [  0]    ***   
       INPUT_MRCC           IMRCC          ON          [  1]    ***   
       INTEGRALS            INTTYP         VMOL        [  1]    ***   
       JODA_PRINT           IJPRNT              0               ***   
       KEYWORD_OUT          IDMPKW         NO          [  0]    ***   
       LINDEP_TOL           ILINDP              8               ***   
       LINEQ_CONV           IZTACN          10D-  7           cycles  
       LINEQ_EXPOR          ILMAXD              5               ***   
       LINEQ_MAXCY          ILMAXC            100               ***   
       LINEQ_TYPE           ILTYPE         DIIS        [  1]    ***   
       LOCK_ORBOCC          ILOCOC         OFF         [  0]    ***   
       MEMORY_SIZE          IMEMSZ         *********           words  
       MEM_UNIT             IMEMU          INTEGERWORDS[  0]    ***   
       MRCC                 IMRCCC         OFF         [  0]    ***   
       MULTIPLICTY          IMULTP              1               ***   
       NACOUPLING           IVCOUP         OFF         [  0]    ***   
       NEGEVAL              IDIE           ABORT       [  0]    ***   
       NEWNORM              INEWNO         OFF         [  0]    ***   
       NON-HF               INONHF         OFF         [  0]    ***   
       NTOP_TAMP            ITOPT2             15               ***   
       NUC_MODEL            INUCMO         POINT       [  0]    ***   
       OCCUPATION           IOCCU   ESTIMATED BY SCF 
       OPEN-SHELL           IOPEN          SPIN-ORBITAL[  0]    ***   
       OPTVIB               IOPTVB         OFF         [  0]    ***   
       ORBITALS             IORBTP         STANDARD    [  0]    ***   
       PARALLEL             IPARAL         ON          [  1]    ***   
       PARA_INT             IPINTS         ON          [  1]    ***   
       PARA_PRINT           IPPRIN              0               ***   
       PERT_ORB             IPTORB         STANDARD    [  0]    ***   
       POINTS               IGRDFD              0               ***   
       PRINT                IPRNT               0               ***   
       PROPS                IPROPS         OFF         [  0]    ***   
       PROP_INTEGR          IINTYP         INTERNAL    [  0]    ***   
       PSI                  IPSI           OFF         [  0]    ***   
       QC_ALG               IQCALG         FLM         [  0]    ***   
       QC_LINALG            IQCLIN         TRIDIAG     [  2]    ***   
       QC_MAXCYC            IQCMAX          10D-100           cycles  
       QC_MAXSCFCY          IQCMSC          10D- 15           cycles  
       QC_RTRUST            IQCRTR          10D-  0           x 10-3  
       QC_SKIPSCF           IQCSKI         OFF         [  0]    ***   
       QC_START             IQCSTA          10D-  1             ***   
       QRHFGUESS            IQGUES         OFF         [  0]    ***   
       QUARTIC              IQUART         OFF         [  0]    ***   
       RAMAN_INT            IRAMIN         OFF         [  0]    ***   
       RAMAN_ORB            IRAMRE         UNRELAXED   [  0]    ***   
       RDO                  IRDOFM         OFF         [  0]    ***   
       REDUCE_REPR          REDREP         Ir          [  0]    ***   
       REFERENCE            IREFNC         RHF         [  0]    ***   
       RELATIVIST           IRELAT         OFF         [  0]    ***   
       RELAX_DENS           IRDENS         OFF         [  0]    ***   
       RESET_FLAGS          IRESET         OFF         [  0]    ***   
       RESTART_CC           ICCRES         OFF         [  0]    ***   
       ROT_EVEC             ROTVEC              0               ***   
       SAVE_INTS            ISVINT         OFF         [  0]    ***   
       SCALE_ON             ISTCRT              0               ***   
       SCF_CONV             ISCFCV          10D- 11             ***   
       SCF_DAMPING          IDAMP               0             x 10-3  
       SCF_EXPORDE          IRPPOR              6               ***   
       SCF_EXPSTAR          IRPPLS              8               ***   
       SCF_EXTRAPO          IRPP           ON          [  1]    ***   
       SCF_MAXCYC           ISCFCY            150              cycles 
       SCF_NOSTOP           ISCFST         OFF         [  0]    ***   
       SCF_PRINT            ISCFPR              0               ***   
       SCF_PROG             ISCFPR         SCF         [  0]    ***   
       SD_FIELD             IFINSD              0             x 10-6  
       SOPERT               IPERSO         OFF         [  0]    ***   
       SPHERICAL            IDFGHI         ON          [  1]    ***   
       SPINORBIT            ISOCAL         OFF         [  0]    ***   
       SPINROTATIO          ISRCON         OFF         [  0]    ***   
       SPIN_FLIP            ISPFLP         OFF         [  0]    ***   
       SPIN_ORBIT           ISPORB         OFF         [  0]    ***   
       SPIN_SCAL            ISCSMP         OFF         [  0]    ***   
       STEEPSCALE           ISTPSC              1000          x 10-3  
       SUBGROUP             ISUBGP         DEFAULT     [  0]    ***   
       SUBGRPAXIS           ISBXYZ         X           [  0]    ***   
       SYMMETRY             ISYM           ON          [  0]    ***   
       SYM_CHECK            ISYMCK         OVERRIDE    [  1]    ***   
       T3_EXTRAPOL          IT3EXT         OFF         [  0]    ***   
       T4_EXTRAPOL          IT4EXP         OFF         [  0]    ***   
       TAMP_SUM             IEVERY              5               ***   
       TESTSUITE            ITESTS         OFF         [  0]    ***   
       THERMOCH             ITHERM         OFF         [  0]    ***   
       TOL_CHOLESK          ITOLCH          10D-  4             ***   
       TRANGRAD             IRESRM         OFF         [  0]    ***   
       TRANS_INV            ITRAIN         USE         [  0]    ***   
       TREAT_PERT           ITREAT         SIMULTANEOUS[  0]    ***   
       TRIP_ALGORI          ITRALG         NORMAL      [  0]    ***   
       UIJ_THRESHO          IUIJTH              1               ***   
       UNITS                IUNITS         ANGSTROM    [  0]    ***   
       UNOS                 IUNOS          OFF         [  0]    ***   
       UPDATE_HESS          IHUPDT         ON          [  1]    ***   
       VIBPHASE             ISETPH         STANDARD    [  0]    ***   
       VIBRATION            IVIB           NO          [  0]    ***   
       VIB_ALGORIT          IGEALG         STANDARD    [  0]    ***   
       VNATORB              IVNORB         OFF         [  0]    ***   
       VTRAN                IVTRAN         FULL/PARTIAL[  0]    ***   
       XFIELD               IXEFLD              0             x 10-6  
       XFORM_TOL            IXFTOL          10D- 11             ***   
       YFIELD               IYEFLD              0             x 10-6  
       ZFIELD               IZEFLD              0             x 10-6  
       ZSCALE_EXP           IZEXPS         OFF         [  0]    ***   
    -------------------------------------------------------------------
   3 entries found in Z-matrix 
   Job Title : Hypochlorous acid higher-order corrections                                      
   There are  3 unique internal coordinates.
   Of these,  0 will be optimized.
   User supplied Z-matrix: 
--------------------------------------------------------------------------------
       SYMBOL    BOND      LENGTH    ANGLE     ANGLE     DIHED     ANGLE
                  TO      (ANGST)    WRT      (DEG)      WRT      (DEG)
--------------------------------------------------------------------------------
        O    
        H          1         ROH  
        CL         1         ROCL       2        A    
                  *Initial values for internal coordinates* 
                      Name             Value
                        ROH             0.9600000000
                        ROCL            1.6830000000
                        A             103.0000000000
--------------------------------------------------------------------------------
   Rotational constants (in cm-1): 
          0.4986283810             0.5109414749            20.6909752034
   Rotational constants (in MHz): 
      14948.5048915352         15317.6422116400        620299.9183677260
********************************************************************************
   The full molecular point group is C s .
   The largest Abelian subgroup of the full molecular point group is C s .
   The computational point group is C s .
********************************************************************************
--------------------------------------------------------------------------------
   Analysis of internal coordinates specified by Z-matrix 
--------------------------------------------------------------------------------
   *The nuclear repulsion energy is   51.421342545418085 a.u.
   *There are   3 degrees of freedom within the tot. symm. molecular subspace.
   *Z-matrix requests optimization of   0 coordinates.
   *The optimization is constrained.
   *The following   3 parameters can have non-zero 
    derivatives within the totally symmetric subspace:
             A    [ 3]  ROH  [ 1]  ROCL [ 2]
   *The following   0 parameters are to be optimized:

   *The following coordinates must be varied in an  unconstrained optimization.
             A    [ 3]  ROH  [ 1]  ROCL [ 2]
--------------------------------------------------------------------------------


 ----------------------------------------------------------------
         Coordinates used in calculation (QCOMP) 
 ----------------------------------------------------------------
 Z-matrix   Atomic            Coordinates (in bohr)
  Symbol    Number           X              Y              Z
 ----------------------------------------------------------------
     O         8        -2.12900359     0.11827324     0.00000000
     H         1        -2.60644102    -1.63191196    -0.00000000
     CL       17         1.04893539    -0.00706596    -0.00000000
 ----------------------------------------------------------------
 
   Interatomic distance matrix (Angstroms) 
 
                 O             H             CL   
                [ 1]        [ 2]        [ 3]
  O    [ 1]     0.00000
  H    [ 2]     0.96000     0.00000
  CL   [ 3]     1.68300     2.11683     0.00000
 rotcon2
   Rotational constants (in cm-1): 
         20.6909752034             0.5109414749             0.4986283810
   Rotational constants (in MHz): 
     620299.9183677230         15317.6422116400         14948.5048915352
  ECPDATA file not present.   Using default ECPDATA. 
  There are   6 frozen-core orbitals.
  There are  119 basis functions.
 @GEOPT-W, Archive file not created for single-point calculation.
 @CHECKOUT-I, Total execution time (CPU/WALL):        0.13/       0.17 seconds.
--executable xjoda finished with status     0 in        0.21 seconds (walltime).
 --invoking executable--
/home/asmola/.local/bin/xvmol
 SERIAL VERSION OF MOLECULE STARTED
********************************************************************************
                    INPUT FROM MOL FILE
********************************************************************************
INTGRL        1    0    1    0    0    0    0    0    0                         
         *** CFOUR Program System (Release V0.1) ***                            
Hypochlorous acid higher-order corrections                                      
    3    1 Z          0.10E-08              0    0                              
   9999.00      3.00                                                            
          8.00000000    1    4    1    1    1    1                              
O #1  -2.129003589923529   0.118273239213443   0.000000000000000                
   11    5                                                                      
   15330.0000000000       5.080000000000000E-004 -1.150000000000000E-004        
  0.000000000000000E+000  0.000000000000000E+000  0.000000000000000E+000        
   2299.00000000000       3.929000000000000E-003 -8.950000000000000E-004        
  0.000000000000000E+000  0.000000000000000E+000  0.000000000000000E+000        
   522.400000000000       2.024300000000000E-002 -4.636000000000000E-003        
  0.000000000000000E+000  0.000000000000000E+000  0.000000000000000E+000        
   147.300000000000       7.918100000000000E-002 -1.872400000000000E-002        
  0.000000000000000E+000  0.000000000000000E+000  0.000000000000000E+000        
   47.5500000000000       0.230687000000000      -5.846300000000000E-002        
  0.000000000000000E+000  0.000000000000000E+000  0.000000000000000E+000        
   16.7600000000000       0.433118000000000      -0.136463000000000             
  0.000000000000000E+000  0.000000000000000E+000  0.000000000000000E+000        
   6.20700000000000       0.350260000000000      -0.175740000000000             
  0.000000000000000E+000  0.000000000000000E+000  0.000000000000000E+000        
   1.75200000000000       4.272800000000000E-002  0.160934000000000             
   1.00000000000000       0.000000000000000E+000  0.000000000000000E+000        
  0.688200000000000      -8.154000000000000E-003  0.603418000000000             
  0.000000000000000E+000  0.000000000000000E+000  0.000000000000000E+000        
  0.238400000000000       2.381000000000000E-003  0.378765000000000             
  0.000000000000000E+000   1.00000000000000       0.000000000000000E+000        
  7.376000000000001E-002  0.000000000000000E+000  0.000000000000000E+000        
  0.000000000000000E+000  0.000000000000000E+000   1.00000000000000             
    6    4                                                                      
   34.4600000000000       1.592800000000000E-002  0.000000000000000E+000        
  0.000000000000000E+000  0.000000000000000E+000                                
   7.74900000000000       9.974000000000000E-002  0.000000000000000E+000        
  0.000000000000000E+000  0.000000000000000E+000                                
   2.28000000000000       0.310492000000000       0.000000000000000E+000        
  0.000000000000000E+000  0.000000000000000E+000                                
  0.715600000000000       0.491026000000000        1.00000000000000             
  0.000000000000000E+000  0.000000000000000E+000                                
  0.214000000000000       0.336337000000000       0.000000000000000E+000        
   1.00000000000000       0.000000000000000E+000                                
  5.974000000000000E-002  0.000000000000000E+000  0.000000000000000E+000        
  0.000000000000000E+000   1.00000000000000                                     
    3    3                                                                      
   2.31400000000000        1.00000000000000       0.000000000000000E+000        
  0.000000000000000E+000                                                        
  0.645000000000000       0.000000000000000E+000   1.00000000000000             
  0.000000000000000E+000                                                        
  0.214000000000000       0.000000000000000E+000  0.000000000000000E+000        
   1.00000000000000                                                             
    2    2                                                                      
   1.42800000000000        1.00000000000000       0.000000000000000E+000        
  0.500000000000000       0.000000000000000E+000   1.00000000000000             
          1.00000000    1    3    1    1    1                                   
H #2  -2.606441018138384  -1.631911958226462  -0.000000000000002                
    6    4                                                                      
   33.8700000000000       6.068000000000000E-003  0.000000000000000E+000        
  0.000000000000000E+000  0.000000000000000E+000                                
   5.09500000000000       4.530800000000000E-002  0.000000000000000E+000        
  0.000000000000000E+000  0.000000000000000E+000                                
   1.15900000000000       0.202822000000000       0.000000000000000E+000        
  0.000000000000000E+000  0.000000000000000E+000                                
  0.325800000000000       0.503903000000000        1.00000000000000             
  0.000000000000000E+000  0.000000000000000E+000                                
  0.102700000000000       0.383421000000000       0.000000000000000E+000        
   1.00000000000000       0.000000000000000E+000                                
  2.526000000000000E-002  0.000000000000000E+000  0.000000000000000E+000        
  0.000000000000000E+000   1.00000000000000                                     
    3    3                                                                      
   1.40700000000000        1.00000000000000       0.000000000000000E+000        
  0.000000000000000E+000                                                        
  0.388000000000000       0.000000000000000E+000   1.00000000000000             
  0.000000000000000E+000                                                        
  0.102000000000000       0.000000000000000E+000  0.000000000000000E+000        
   1.00000000000000                                                             
    2    2                                                                      
   1.05700000000000        1.00000000000000       0.000000000000000E+000        
  0.247000000000000       0.000000000000000E+000   1.00000000000000             
         17.00000000    1    4    1    1    1    1                              
CL#3   1.048935390325044  -0.007065963524382  -0.000000000000000                
   16    6                                                                      
   456100.000000000       4.930000000000000E-005 -1.380000000000000E-005        
  4.200000000000000E-006  0.000000000000000E+000  0.000000000000000E+000        
  0.000000000000000E+000                                                        
   68330.0000000000       3.830000000000000E-004 -1.073000000000000E-004        
  3.240000000000000E-005  0.000000000000000E+000  0.000000000000000E+000        
  0.000000000000000E+000                                                        
   15550.0000000000       2.008500000000000E-003 -5.651000000000000E-004        
  1.711000000000000E-004  0.000000000000000E+000  0.000000000000000E+000        
  0.000000000000000E+000                                                        
   4405.00000000000       8.385600000000000E-003 -2.361400000000000E-003        
  7.142000000000000E-004  0.000000000000000E+000  0.000000000000000E+000        
  0.000000000000000E+000                                                        
   1439.00000000000       2.947030000000000E-002 -8.458900000000000E-003        
  2.567000000000000E-003  0.000000000000000E+000  0.000000000000000E+000        
  0.000000000000000E+000                                                        
   520.400000000000       8.783249999999999E-002 -2.596380000000000E-002        
  7.885500000000000E-003  0.000000000000000E+000  0.000000000000000E+000        
  0.000000000000000E+000                                                        
   203.100000000000       0.211473000000000      -6.863619999999999E-002        
  2.108670000000000E-002  0.000000000000000E+000  0.000000000000000E+000        
  0.000000000000000E+000                                                        
   83.9600000000000       0.365364000000000      -0.141874000000000             
  4.422640000000000E-002  0.000000000000000E+000  0.000000000000000E+000        
  0.000000000000000E+000                                                        
   36.2000000000000       0.340884000000000      -0.199319000000000             
  6.516700000000000E-002  0.000000000000000E+000  0.000000000000000E+000        
  0.000000000000000E+000                                                        
   15.8300000000000       0.102133000000000      -1.956620000000000E-002        
  6.030100000000000E-003  0.000000000000000E+000  0.000000000000000E+000        
  0.000000000000000E+000                                                        
   6.33400000000000       3.116800000000000E-003  0.499741000000000             
 -0.206495000000000       0.000000000000000E+000  0.000000000000000E+000        
  0.000000000000000E+000                                                        
   2.69400000000000       1.057500000000000E-003  0.563736000000000             
 -0.405871000000000       0.000000000000000E+000  0.000000000000000E+000        
  0.000000000000000E+000                                                        
  0.976800000000000      -3.780000000000000E-004  7.903250000000001E-002        
  7.595580000000000E-002   1.00000000000000       0.000000000000000E+000        
  0.000000000000000E+000                                                        
  0.431300000000000       1.561000000000000E-004 -8.350900000000000E-003        
  0.725661000000000       0.000000000000000E+000  0.000000000000000E+000        
  0.000000000000000E+000                                                        
  0.162500000000000      -5.140000000000000E-005  2.324600000000000E-003        
  0.394423000000000       0.000000000000000E+000   1.00000000000000             
  0.000000000000000E+000                                                        
  5.910000000000000E-002  0.000000000000000E+000  0.000000000000000E+000        
  0.000000000000000E+000  0.000000000000000E+000  0.000000000000000E+000        
   1.00000000000000                                                             
   10    5                                                                      
   663.300000000000       2.404500000000000E-003 -6.521000000000000E-004        
  0.000000000000000E+000  0.000000000000000E+000  0.000000000000000E+000        
   156.800000000000       1.921480000000000E-002 -5.194500000000000E-003        
  0.000000000000000E+000  0.000000000000000E+000  0.000000000000000E+000        
   49.9800000000000       8.850970000000000E-002 -2.469380000000000E-002        
  0.000000000000000E+000  0.000000000000000E+000  0.000000000000000E+000        
   18.4200000000000       0.256020000000000      -7.281670000000000E-002        
  0.000000000000000E+000  0.000000000000000E+000  0.000000000000000E+000        
   7.24000000000000       0.436927000000000      -0.134030000000000             
  0.000000000000000E+000  0.000000000000000E+000  0.000000000000000E+000        
   2.92200000000000       0.350334000000000      -9.477420000000000E-002        
  0.000000000000000E+000  0.000000000000000E+000  0.000000000000000E+000        
   1.02200000000000       5.854950000000000E-002  0.262289000000000             
   1.00000000000000       0.000000000000000E+000  0.000000000000000E+000        
  0.381800000000000      -4.584200000000000E-003  0.564667000000000             
  0.000000000000000E+000  0.000000000000000E+000  0.000000000000000E+000        
  0.130100000000000       2.269700000000000E-003  0.341250000000000             
  0.000000000000000E+000   1.00000000000000       0.000000000000000E+000        
  4.190000000000000E-002  0.000000000000000E+000  0.000000000000000E+000        
  0.000000000000000E+000  0.000000000000000E+000   1.00000000000000             
    3    3                                                                      
   1.04600000000000        1.00000000000000       0.000000000000000E+000        
  0.000000000000000E+000                                                        
  0.344000000000000       0.000000000000000E+000   1.00000000000000             
  0.000000000000000E+000                                                        
  0.135000000000000       0.000000000000000E+000  0.000000000000000E+000        
   1.00000000000000                                                             
    2    2                                                                      
  0.706000000000000        1.00000000000000       0.000000000000000E+000        
  0.312000000000000       0.000000000000000E+000   1.00000000000000             
FINISH                                                                          
 
********************************************************************************
 ONE- AND TWO-ELECTRON INTEGRALS OVER SYMMETRY-ADAPTED AOS ARE CALCULATED.

  SPHERICAL HARMONICS ARE USED.
  
  INTEGRALS LESS THAN  0.10E-13 ARE NEGLECTED.

  NUCLEAR REPULSION ENERGY :   51.4213425454 A.U.
  @MOLECU-I, ONE ELECTRON INTEGRALS (CPU/WALL):        0.04/       0.04 SECONDS.
  @TWOEL-I,    5095583 INTEGRALS OF SYMMETRY TYPE  I I I I
  @TWOEL-I,    4772977 INTEGRALS OF SYMMETRY TYPE  I J I J
  @TWOEL-I,    2471109 INTEGRALS OF SYMMETRY TYPE  I I J J
  @TWOEL-I, TOTAL NUMBER OF 2-E INTEGRALS   12339669.
  @MOLECU-I, TWO ELECTRON INTEGRALS (CPU/WALL):       25.67/       3.99 SECONDS.
 @CHECKOUT-I, Total execution time (CPU/WALL):       25.72/       4.04 seconds.

Running with 12 threads/proc

--executable xvmol finished with status     0 in        4.08 seconds (walltime).
 --invoking executable--
/home/asmola/.local/bin/xvmol2ja
 @GETMEM-I,  Allocated   38146 MB of main memory.
 @CHECKOUT-I, Total execution time (CPU/WALL):        0.05/       0.03 seconds.
--executable xvmol2ja finished with status     0 in        0.06 seconds (walltime).
 --invoking executable--
/home/asmola/.local/bin/xvscf
  There are  119 functions in the AO basis.

  There are 2 irreducible representations.

       Irrep        # of functions
         1                 79
         2                 40


  Parameters for SCF calculation: 
        SCF reference function:  RHF  
  Maximum number of iterations:  150
     Full symmetry point group: C s 
     Computational point group: C s 
        Initial density matrix: MOREAD                 
     SCF convergence tolerance: 10**(-11)
  DIIS convergence acceleration:  ON
          Latest start for DIIS:   8
                     DIIS order:   6

  Memory information:     715166 words required.
  Fock matrices are constructed from AO integral file.
 @GETMEM-I,  Allocated       5 MB of main memory.
  Initialization and symmetry analysis required      0.001 seconds.

  @INITGES-I, Occupancies from core Hamiltonian:

          Alpha population by irrep:  11    2
           Beta population by irrep:  11    2


 total no. of electrons in initial guess :  0.000000000000000E+000
  --------------------------------------------------------------------
  Iteration         Total Energy            Largest Density Difference
  --------------------------------------------------------------------
       0            51.421342545418092              0.0000000000D+00
   current occupation vector 
    11  2
    11  2
       1          -494.934658232454979              0.1647400083D+02
   current occupation vector 
    11  2
    11  2
       2          -513.198755699808885              0.1567572199D+02
   current occupation vector 
    10  3
    10  3
       3          -504.583185193217957              0.4920880493D+01
   current occupation vector 
    10  3
    10  3
       4          -507.343464628553477              0.7555189026D+01
   current occupation vector 
    10  3
    10  3
       5          -504.769182243817966              0.7555199119D+01
   current occupation vector 
    10  3
    10  3
       6          -507.028479891412701              0.7665745882D+01
   current occupation vector 
    10  3
    10  3
       7          -504.780476432791090              0.7665746029D+01
   current occupation vector 
    10  3
    10  3
       8          -507.010958553244848              0.7670495485D+01
   current occupation vector 
    10  3
    10  3
       9          -526.281150455729289              0.4700579688D+01
   current occupation vector 
    11  2
    11  2
      10          -534.792862612384056              0.2614675562D+01
   current occupation vector 
    10  3
    10  3
      11          -534.902882455399322              0.1990356482D+00
   current occupation vector 
    10  3
    10  3
      12          -534.921302024244369              0.1533707502D+00
   current occupation vector 
    10  3
    10  3
      13          -534.922371033600143              0.3353873522D-01
   current occupation vector 
    10  3
    10  3
      14          -534.922671880057351              0.1190615822D-01
   current occupation vector 
    10  3
    10  3
      15          -534.922758844721329              0.1055948627D-01
   current occupation vector 
    10  3
    10  3
      16          -534.922766870653618              0.3464016085D-02
   current occupation vector 
    10  3
    10  3
      17          -534.922767906049103              0.1228127875D-02
   current occupation vector 
    10  3
    10  3
      18          -534.922768019413184              0.5131935509D-03
   current occupation vector 
    10  3
    10  3
      19          -534.922768041176482              0.2905690178D-03
   current occupation vector 
    10  3
    10  3
      20          -534.922768041725931              0.3683760679D-04
   current occupation vector 
    10  3
    10  3
      21          -534.922768041750373              0.7230309861D-05
   current occupation vector 
    10  3
    10  3
      22          -534.922768041750146              0.8744851009D-06
   current occupation vector 
    10  3
    10  3
      23          -534.922768041755376              0.4299105196D-06
   current occupation vector 
    10  3
    10  3
      24          -534.922768041754807              0.2644071844D-06
   current occupation vector 
    10  3
    10  3
      25          -534.922768041749123              0.1093581568D-06
   current occupation vector 
    10  3
    10  3
      26          -534.922768041751169              0.4050915325D-07
   current occupation vector 
    10  3
    10  3
      27          -534.922768041750260              0.2498676693D-07
   current occupation vector 
    10  3
    10  3
      28          -534.922768041751851              0.1187321245D-07
   current occupation vector 
    10  3
    10  3
      29          -534.922768041752079              0.3918211186D-08
   current occupation vector 
    10  3
    10  3
      30          -534.922768041749919              0.7385358713D-09
   current occupation vector 
    10  3
    10  3
      31          -534.922768041753443              0.1050486365D-09
   current occupation vector 
    10  3
    10  3
      32          -534.922768041752647              0.5198541597D-10
   current occupation vector 
    10  3
    10  3
      33          -534.922768041751624              0.1931748858D-10
   current occupation vector 
    10  3
    10  3
      34          -534.922768041752192              0.1305647257D-10
   current occupation vector 
    10  3
    10  3
      35          -534.922768041750601              0.1294733244D-10
   current occupation vector 
    10  3
    10  3
      36          -534.922768041754466              0.1494478152D-10
   current occupation vector 
    10  3
    10  3
      37          -534.922768041752875              0.1477298665D-10
   current occupation vector 
    10  3
    10  3

  SCF has converged.

 Density matrix saved to file den.dat
 total electron number:   26.0000000000001     
     E(SCF)=      -534.922768041753216              0.4350131366D-11


  Final occupancies:

     Alpha population by irrep:  10    3
      Beta population by irrep:  10    3


  Eigenvector printing suppressed.

 @PUTMOS-I, Writing converged MOs to NEWMOS. 
 @PUTMOS-I, Symmetry   1 Full Blocks 19 Partial Blocksize   3
 @PUTMOS-I, Symmetry   2 Full Blocks 10 Partial Blocksize   0
 @PUTFOCK-I, Writing converged Fock matrix to NEWFOCK. 
 @PUTFOCK-I, Symmetry   1 Full Blocks 19 Partial Blocksize   3
 @PUTFOCK-I, Symmetry   2 Full Blocks 10 Partial Blocksize   0


 
  ORBITAL EIGENVALUES (ALPHA)  (1H = 27.2113834 eV)

       MO #        E(hartree)               E(eV)           FULLSYM    COMPSYM
       ----   --------------------   --------------------   -------   ---------
    1     1        -104.8925204641       -2854.2705901412     A'        A'  (1)
    2     2         -20.6435468199        -561.7394672517     A'        A'  (1)
    3     3         -10.6118318483        -288.7626249991     A'        A'  (1)
    4     4          -8.0790515776        -219.8421699863     A'        A'  (1)
    5     5          -8.0759425512        -219.7575690782     A'        A'  (1)
    6    80          -8.0757845218        -219.7532688779     A''       A'' (2)
    7     6          -1.4176739244         -38.5768686930     A'        A'  (1)
    8     7          -1.0622549069         -28.9054255393     A'        A'  (1)
    9     8          -0.7244613283         -19.7135949642     A'        A'  (1)
   10    81          -0.6159049256         -16.7596250674     A''       A'' (2)
   11     9          -0.6064833975         -16.5032522556     A'        A'  (1)
   12    10          -0.4684691634         -12.7476940162     A'        A'  (1)
   13    82          -0.4437227836         -12.0743107884     A''       A'' (2)
  +++++++++++++++++++++++++++++++++++++++++++++++++++++++++++++++++++++++++++++
   14    11           0.0287800925           0.7831461313     A'        A'  (1)
   15    12           0.0628583493           1.7104626434     A'        A'  (1)
   16    13           0.1096842805           2.9846610104     A'        A'  (1)
   17    83           0.1157960593           3.1509709645     A''       A'' (2)
   18    14           0.1411782809           3.8416563284     A'        A'  (1)
   19    15           0.1594165802           4.3379456844     A'        A'  (1)
   20    16           0.1732445152           4.7142229239     A'        A'  (1)
   21    17           0.1772591155           4.8234657536     A'        A'  (1)
   22    84           0.1882704224           5.1230986470     A''       A'' (2)
   23    18           0.2436165374           6.6291430010     A'        A'  (1)
   24    85           0.2585092749           7.0343949915     A''       A'' (2)
   25    19           0.3110646282           8.4644988611     A'        A'  (1)
   26    20           0.3232286703           8.7954992745     A'        A'  (1)
   27    86           0.3891035490          10.5880458553     A''       A'' (2)
   28    21           0.3947490894          10.7416688194     A'        A'  (1)
   29    87           0.4231821936          11.5153729176     A''       A'' (2)
   30    22           0.4250568235          11.5663841916     A'        A'  (1)
   31    23           0.4497318170          12.2378248993     A'        A'  (1)
   32    24           0.5033244077          13.6961534319     A'        A'  (1)
   33    25           0.6069928371          16.5171148117     A'        A'  (1)
   34    88           0.6157746379          16.7560797592     A''       A'' (2)
   35    26           0.6892015555          18.7541277677     A'        A'  (1)
   36    27           0.7091617995          19.2972736183     A'        A'  (1)
   37    89           0.7109485297          19.3458930193     A''       A'' (2)
   38    28           0.7273786963          19.7929805817     A'        A'  (1)
   39    90           0.7748355094          21.0843461182     A''       A'' (2)
   40    29           0.7951979186          21.6384354410     A'        A'  (1)
   41    30           0.8882255187          24.1698451352     A'        A'  (1)
   42    31           0.9033413973          24.5811691018     A'        A'  (1)
   43    91           0.9121309368          24.8203446320     A''       A'' (2)
   44    92           0.9156206123          24.9153035302     A''       A'' (2)
   45    32           0.9299913356          25.3063507927     A'        A'  (1)
   46    93           0.9311034230          25.3366122291     A''       A'' (2)
   47    33           0.9510834319          25.8802959120     A'        A'  (1)
   48    34           0.9696783649          26.3862897617     A'        A'  (1)
   49    35           1.0081323143          27.4326749224     A'        A'  (1)
   50    94           1.0113781802          27.5209994249     A''       A'' (2)
   51    36           1.0504253657          28.5835273583     A'        A'  (1)
   52    95           1.1302841597          30.7565956197     A''       A'' (2)
   53    37           1.1540463883          31.4031987343     A'        A'  (1)
   54    96           1.2235182796          33.2936250020     A''       A'' (2)
   55    38           1.2363208175          33.6419997715     A'        A'  (1)
   56    39           1.3167665673          35.8310399121     A'        A'  (1)
   57    40           1.3486989575          36.6999644249     A'        A'  (1)
   58    41           1.4047911623          38.2263109139     A'        A'  (1)
   59    97           1.4222658772          38.7018220825     A''       A'' (2)
   60    98           1.5125222576          41.1578230524     A''       A'' (2)
   61    99           1.5382965466          41.8591771129     A''       A'' (2)
   62    42           1.5624496804          42.5164172955     A'        A'  (1)
   63    43           1.6954218165          46.1347730732     A'        A'  (1)
   64    44           1.7875093915          48.6406033835     A'        A'  (1)
   65    45           1.9046299175          51.8276149209     A'        A'  (1)
   66    46           2.0968630184          57.0585435312     A'        A'  (1)
   67   100           2.2057680546          60.0220002253     A''       A'' (2)
   68   101           2.2625593320          61.5673694495     A''       A'' (2)
   69    47           2.2931917885          62.4009209655     A'        A'  (1)
   70    48           2.3448225103          63.8058643325     A'        A'  (1)
   71   102           2.3804058135          64.7741352377     A''       A'' (2)
   72    49           2.3819973158          64.8174422167     A'        A'  (1)
   73    50           2.4490263253          66.6413942937     A'        A'  (1)
   74   103           2.4865879228          67.6634973246     A''       A'' (2)
   75    51           2.5028710429          68.1065835487     A'        A'  (1)
   76    52           2.5249703690          68.7079367834     A'        A'  (1)
   77    53           2.5472800306          69.3150135409     A'        A'  (1)
   78   104           2.5537210907          69.4902836971     A''       A'' (2)
   79   105           2.5999610158          70.7485360264     A''       A'' (2)
   80    54           2.6173803149          71.2225392512     A'        A'  (1)
   81   106           2.7469471700          74.7482326212     A''       A'' (2)
   82    55           2.7866657593          75.8290303847     A'        A'  (1)
   83   107           2.9284637347          79.6875494574     A''       A'' (2)
   84    56           3.0022480478          81.6953226911     A'        A'  (1)
   85    57           3.0438270171          82.8267439665     A'        A'  (1)
   86   108           3.0574863118          83.1984322700     A''       A'' (2)
   87    58           3.0754734808          83.6878880226     A'        A'  (1)
   88    59           3.1349232264          85.3055978443     A'        A'  (1)
   89   109           3.1410799235          85.4731300876     A''       A'' (2)
   90    60           3.3237478245          90.4437763765     A'        A'  (1)
   91    61           3.3598735242          91.4268066428     A'        A'  (1)
   92   110           3.3755629908          91.8537387331     A''       A'' (2)
   93    62           3.6803967934         100.1486882095     A'        A'  (1)
   94    63           3.7514202458         102.0813346041     A'        A'  (1)
   95   111           4.1342347078         112.4982457003     A''       A'' (2)
   96   112           4.1738352379         113.5758309064     A''       A'' (2)
   97   113           4.3421234743         118.1551866284     A''       A'' (2)
   98    64           4.3605038673         118.6553425498     A'        A'  (1)
   99    65           4.5229212161         123.0749433002     A'        A'  (1)
  100    66           4.7208739219         128.4615102717     A'        A'  (1)
  101    67           4.8296266949         131.4208236750     A'        A'  (1)
  102    68           5.2108807862         141.7952749245     A'        A'  (1)
  103   114           5.3184473203         144.7223091261     A''       A'' (2)
  104    69           5.5590614683         151.2697529576     A'        A'  (1)
  105    70           6.1581938483         167.5729738564     A'        A'  (1)
  106    71           6.3361726617         172.4160235862     A'        A'  (1)
  107   115           6.6503440725         180.9650622991     A''       A'' (2)
  108    72           6.7223849034         182.9253929687     A'        A'  (1)
  109   116           6.7375163785         183.3371413389     A''       A'' (2)
  110    73           6.7684757503         184.1795886748     A'        A'  (1)
  111   117           7.1488731566         194.5307283423     A''       A'' (2)
  112   118           7.1923229472         195.7130572525     A''       A'' (2)
  113    74           7.2315230676         196.7797467582     A'        A'  (1)
  114   119           7.2607829931         197.5759498094     A''       A'' (2)
  115    75           7.2611892541         197.5870047334     A'        A'  (1)
  116    76           7.4823040929         203.6038453878     A'        A'  (1)
  117    77           7.5927661564         206.6096709494     A'        A'  (1)
  118    78           8.2259905609         223.8405829985     A'        A'  (1)
  119    79          14.5697281540         396.4624588324     A'        A'  (1)


  VSCF finished.

 @CHECKOUT-I, Total execution time (CPU/WALL):       37.00/       4.66 seconds.
--executable xvscf finished with status     0 in        4.69 seconds (walltime).
 --invoking executable--
/home/asmola/.local/bin/xvtran
 @GETMEM-I,  Allocated   38146 MB of main memory.
  Full RHF integral transformation
  The following   6 MOs will be dropped:
    1  2  3  4  5 11
  There are 113 active molecular orbitals.
  Transformation of IIII integrals :
  1 pass through the AO integral file was required.
     5095583 AO integrals were read.
     4156290 MO integrals were written to HF2.
  Transformation of IIJJ integrals :
  1 pass through the AO integral file was required.
     2471109 AO integrals were read.
     2164500 MO integrals were written to HF2.
  Transformation of IJIJ integrals :
  1 pass through the AO integral file was required.
     4772977 AO integrals were read.
     4165941 MO integrals were written to HF2.
  Summary of active molecular orbitals: 
------------------------------------------------------------------------
 
  Index      Eigenvalue    Symmetry    Index      Eigenvalue    Symmetry
------------------------------------------------------------------------
     1        -1.4176739        1        58         3.3598735        1
     2        -1.0622549        1        59         3.6803968        1
     3        -0.7244613        1        60         3.7514202        1
     4        -0.6064834        1        61         4.3605039        1
     5        -0.4684692        1        62         4.5229212        1
     6        -0.6159049        2        63         4.7208739        1
     7        -0.4437228        2        64         4.8296267        1
     8         0.0287801        1        65         5.2108808        1
     9         0.0628583        1        66         5.5590615        1
    10         0.1096843        1        67         6.1581938        1
    11         0.1411783        1        68         6.3361727        1
    12         0.1594166        1        69         6.7223849        1
    13         0.1732445        1        70         6.7684758        1
    14         0.1772591        1        71         7.2315231        1
    15         0.2436165        1        72         7.2611893        1
    16         0.3110646        1        73         7.4823041        1
    17         0.3232287        1        74         7.5927662        1
    18         0.3947491        1        75         8.2259906        1
    19         0.4250568        1        76        14.5697282        1
    20         0.4497318        1        77         0.1157961        2
    21         0.5033244        1        78         0.1882704        2
    22         0.6069928        1        79         0.2585093        2
    23         0.6892016        1        80         0.3891035        2
    24         0.7091618        1        81         0.4231822        2
    25         0.7273787        1        82         0.6157746        2
    26         0.7951979        1        83         0.7109485        2
    27         0.8882255        1        84         0.7748355        2
    28         0.9033414        1        85         0.9121309        2
    29         0.9299913        1        86         0.9156206        2
    30         0.9510834        1        87         0.9311034        2
    31         0.9696784        1        88         1.0113782        2
    32         1.0081323        1        89         1.1302842        2
    33         1.0504254        1        90         1.2235183        2
    34         1.1540464        1        91         1.4222659        2
    35         1.2363208        1        92         1.5125223        2
    36         1.3167666        1        93         1.5382965        2
    37         1.3486990        1        94         2.2057681        2
    38         1.4047912        1        95         2.2625593        2
    39         1.5624497        1        96         2.3804058        2
    40         1.6954218        1        97         2.4865879        2
    41         1.7875094        1        98         2.5537211        2
    42         1.9046299        1        99         2.5999610        2
    43         2.0968630        1       100         2.7469472        2
    44         2.2931918        1       101         2.9284637        2
    45         2.3448225        1       102         3.0574863        2
    46         2.3819973        1       103         3.1410799        2
    47         2.4490263        1       104         3.3755630        2
    48         2.5028710        1       105         4.1342347        2
    49         2.5249704        1       106         4.1738352        2
    50         2.5472800        1       107         4.3421235        2
    51         2.6173803        1       108         5.3184473        2
    52         2.7866658        1       109         6.6503441        2
    53         3.0022480        1       110         6.7375164        2
    54         3.0438270        1       111         7.1488732        2
    55         3.0754735        1       112         7.1923229        2
    56         3.1349232        1       113         7.2607830        2
    57         3.3237478        1
------------------------------------------------------------------------
  -1.41767392439783       -1.06225490686622      -0.724461328349066     
 -0.606483397517482      -0.468469163395653      -0.615904925561753     
 -0.443722783619759       2.878009249961129E-002  6.285834932686772E-002
  0.109684280529693       0.141178280867894       0.159416580209984     
  0.173244515156992       0.177259115521850       0.243616537370467     
  0.311064628234121       0.323228670338966       0.394749089432699     
  0.425056823519913       0.449731816990345       0.503324407678452     
  0.606992837112943       0.689201555542436       0.709161799480136     
  0.727378696289446       0.795197918564940       0.888225518705754     
  0.903341397255088       0.929991335635902       0.951083431943780     
  0.969678364888326        1.00813231430321        1.05042536566765     
   1.15404638833384        1.23632081753957        1.31676656733732     
   1.34869895754349        1.40479116228468        1.56244968036027     
   1.69542181648770        1.78750939150917        1.90462991752451     
   2.09686301841034        2.29319178846048        2.34482251029217     
   2.38199731575260        2.44902632527169        2.50287104288570     
   2.52497036896146        2.54728003064146        2.61738031485685     
   2.78666575932671        3.00224804781743        3.04382701713239     
   3.07547348080214        3.13492322644413        3.32374782446647     
   3.35987352421116        3.68039679340674        3.75142024584100     
   4.36050386728047        4.52292121613283        4.72087392189201     
   4.82962669494338        5.21088078618131        5.55906146828121     
   6.15819384825606        6.33617266170124        6.72238490339648     
   6.76847575029058        7.23152306759303        7.26118925410304     
   7.48230409292001        7.59276615643865        8.22599056094009     
   14.5697281540049       0.115796059252274       0.188270422407039     
  0.258509274889303       0.389103549043369       0.423182193583133     
  0.615774637875633       0.710948529697754       0.774835509400341     
  0.912130936792031       0.915620612299154       0.931103423028660     
   1.01137818024117        1.13028415966962        1.22351827955761     
   1.42226587724532        1.51252225759147        1.53829654661877     
   2.20576805460541        2.26255933204287        2.38040581346016     
   2.48658792278183        2.55372109074975        2.59996101581335     
   2.74694716995441        2.92846373467994        3.05748631177654     
   3.14107992347078        3.37556299078383        4.13423470782748     
   4.17383523788080        4.34212347426574        5.31844732032742     
   6.65034407251376        6.73751637849016        7.14887315660399     
   7.19232294718613        7.26078299310010     
 @CHECKOUT-I, Total execution time (CPU/WALL):       11.81/       5.16 seconds.
--executable xvtran finished with status     0 in        5.19 seconds (walltime).
 --invoking executable--
/home/asmola/.local/bin/xintprc
 @GETMEM-I,  Allocated   38146 MB of main memory.
  @GMOIAA-I, Processing MO integrals for spin case AA.
  @GMOIAA-I, Generation of integral list completed.
                      TYPE                NUMBER
                      ----               --------
                      PPPP               8122702
                      PPPH               2131061
                      PPHH                140316
                      PHPH                 81654
                      PHHH                 10772
                      HHHH                   226

                     TOTAL              10486731

  @FORMT2-I, Second-order MP correlation energies:
            ------------------------------------------------
            E(SCF)                  =   -534.922768041753 a.u.
            E2(AA)                  =     -0.055499840708 a.u.
            E2(AB)                  =     -0.337429403128 a.u.
            E2(TOT)                 =     -0.448429084544 a.u.
            Total MP2 energy        =   -535.371197126297 a.u.
            ------------------------------------------------
   Largest T2 amplitudes for spin case AB:
       _       _                 _       _                 _       _
   i   j   a   b             i   j   a   b             i   j   a   b
-----------------------------------------------------------------------------
[  4   4   9   9]-0.02061 [  4   4  11  11]-0.01990 [  4   4  11   9] 0.01931
[  4   4   9  11] 0.01931 [  7   7  81  81]-0.01704 [  4   4  14   9] 0.01604
[  4   4   9  14] 0.01604 [  7   7  82  82]-0.01581 [  3   3  19  19]-0.01518
[  4   4  14  14]-0.01497 [  5   5  87  87]-0.01475 [  4   4  14  11]-0.01463
[  4   4  11  14]-0.01463 [  4   4  12  11] 0.01462 [  4   4  11  12] 0.01462
-----------------------------------------------------------------------------
   Norm of T2AB vector (   279890 symmetry allowed elements):  0.3136318292.
-----------------------------------------------------------------------------
 @CHECKOUT-I, Total execution time (CPU/WALL):        2.35/       1.71 seconds.
--executable xintprc finished with status     0 in        1.75 seconds (walltime).
  calling xvcc 
 --invoking executable--
/home/asmola/.local/bin/xvcc
 @GETMEM-I,  Allocated   38146 MB of main memory.
   CCSDT   energy will be calculated.
   The total correlation energy is -0.448429084544 a.u.
   The total correlation energy is -0.471469026214 a.u.
  Convergence information after     1 iterations: 
  Largest element of residual vector : -0.10040201E-01.
  Largest element of DIIS residual   : -0.10040201E-01.
   The total correlation energy is -0.482414903395 a.u.
  Convergence information after     2 iterations: 
  Largest element of residual vector : -0.28217083E-02.
  Largest element of DIIS residual   : -0.27553350E-02.
   The total correlation energy is -0.484971196551 a.u.
  Convergence information after     3 iterations: 
  Largest element of residual vector : -0.15092207E-02.
  Largest element of DIIS residual   : -0.99471758E-03.
   The total correlation energy is -0.486176203626 a.u.
  Convergence information after     4 iterations: 
  Largest element of residual vector : -0.40088605E-03.
  Largest element of DIIS residual   : -0.24144092E-03.
   The total correlation energy is -0.486339158048 a.u.
  Convergence information after     5 iterations: 
  Largest element of residual vector : -0.18301268E-03.
  Largest element of DIIS residual   : -0.14696408E-03.
   The total correlation energy is -0.486363276952 a.u.
  Convergence information after     6 iterations: 
  Largest element of residual vector : -0.81526181E-04.
  Largest element of DIIS residual   : -0.47607657E-04.
   The total correlation energy is -0.486368101783 a.u.
  Convergence information after     7 iterations: 
  Largest element of residual vector : -0.45664429E-04.
  Largest element of DIIS residual   : -0.26568581E-04.
   The total correlation energy is -0.486370059152 a.u.
  Convergence information after     8 iterations: 
  Largest element of residual vector : -0.16576689E-04.
  Largest element of DIIS residual   : -0.91078597E-05.
   The total correlation energy is -0.486371678712 a.u.
  Convergence information after     9 iterations: 
  Largest element of residual vector : -0.72582917E-05.
  Largest element of DIIS residual   :  0.58783321E-05.
   The total correlation energy is -0.486372304800 a.u.
  Convergence information after    10 iterations: 
  Largest element of residual vector : -0.37247476E-05.
  Largest element of DIIS residual   : -0.22449995E-05.
   The total correlation energy is -0.486372665840 a.u.
  Convergence information after    11 iterations: 
  Largest element of residual vector :  0.18486175E-05.
  Largest element of DIIS residual   :  0.13231385E-05.
   The total correlation energy is -0.486372751187 a.u.
  Convergence information after    12 iterations: 
  Largest element of residual vector : -0.56719468E-06.
  Largest element of DIIS residual   : -0.35078554E-06.
   The total correlation energy is -0.486372740836 a.u.
  Convergence information after    13 iterations: 
  Largest element of residual vector : -0.27014618E-06.
  Largest element of DIIS residual   : -0.21078965E-06.
   The total correlation energy is -0.486372744031 a.u.
  Convergence information after    14 iterations: 
  Largest element of residual vector : -0.16171062E-06.
  Largest element of DIIS residual   : -0.94295153E-07.
   The total correlation energy is -0.486372739732 a.u.
  Convergence information after    15 iterations: 
  Largest element of residual vector : -0.68489758E-07.
  Largest element of DIIS residual   :  0.46383749E-07.
   The total correlation energy is -0.486372743756 a.u.
  Convergence information after    16 iterations: 
  Largest element of residual vector :  0.37587540E-07.
  Largest element of DIIS residual   :  0.31875873E-07.
   The total correlation energy is -0.486372745634 a.u.
  Convergence information after    17 iterations: 
  Largest element of residual vector : -0.24912989E-07.
  Largest element of DIIS residual   :  0.17077168E-07.
   The total correlation energy is -0.486372747860 a.u.
  Convergence information after    18 iterations: 
  Largest element of residual vector :  0.11261372E-07.
  Largest element of DIIS residual   :  0.59229064E-08.
   The total correlation energy is -0.486372749372 a.u.
  Convergence information after    19 iterations: 
  Largest element of residual vector :  0.49269615E-08.
  Largest element of DIIS residual   :  0.30316568E-08.
   The total correlation energy is -0.486372749433 a.u.
  Convergence information after    20 iterations: 
  Largest element of residual vector :  0.21684330E-08.
  Largest element of DIIS residual   :  0.19456293E-08.
   The total correlation energy is -0.486372749461 a.u.
  Convergence information after    21 iterations: 
  Largest element of residual vector :  0.13185473E-08.
  Largest element of DIIS residual   :  0.73115156E-09.
   The total correlation energy is -0.486372749294 a.u.
  Convergence information after    22 iterations: 
  Largest element of residual vector :  0.85172196E-09.
  Largest element of DIIS residual   :  0.35608470E-09.
   The total correlation energy is -0.486372749246 a.u.
  Convergence information after    23 iterations: 
  Largest element of residual vector :  0.23500115E-09.
  Largest element of DIIS residual   : -0.15720015E-09.
   The total correlation energy is -0.486372749214 a.u.
  Convergence information after    24 iterations: 
  Largest element of residual vector :  0.34134651E-09.
  Largest element of DIIS residual   : -0.14167113E-09.
   The total correlation energy is -0.486372749219 a.u.
  Convergence information after    25 iterations: 
  Largest element of residual vector : -0.12819598E-09.
  Largest element of DIIS residual   : -0.55580599E-10.
   The total correlation energy is -0.486372749216 a.u.
  Convergence information after    26 iterations: 
  Largest element of residual vector :  0.15595986E-09.
  Largest element of DIIS residual   : -0.45694844E-10.
   The total correlation energy is -0.486372749220 a.u.
  Convergence information after    27 iterations: 
  Largest element of residual vector : -0.80107132E-10.
  Largest element of DIIS residual   : -0.22905416E-10.
   The total correlation energy is -0.486372749222 a.u.
  Convergence information after    28 iterations: 
  Largest element of residual vector :  0.83410234E-10.
  Largest element of DIIS residual   : -0.11690794E-10.
   The total correlation energy is -0.486372749223 a.u.
  Convergence information after    29 iterations: 
  Largest element of residual vector : -0.51420397E-10.
  Largest element of DIIS residual   : -0.75038827E-11.
   The total correlation energy is -0.486372749223 a.u.
  Convergence information after    30 iterations: 
  Largest element of residual vector :  0.45008774E-10.
  Largest element of DIIS residual   : -0.38395418E-11.
   The total correlation energy is -0.486372749223 a.u.
  Convergence information after    31 iterations: 
  Largest element of residual vector : -0.28332969E-10.
  Largest element of DIIS residual   :  0.33607644E-11.
   The total correlation energy is -0.486372749223 a.u.
  Convergence information after    32 iterations: 
  Largest element of residual vector :  0.27990195E-10.
  Largest element of DIIS residual   :  0.15877619E-11.
   The total correlation energy is -0.486372749223 a.u.
  Convergence information after    33 iterations: 
  Largest element of residual vector : -0.15411473E-10.
  Largest element of DIIS residual   :  0.14745866E-11.
   The total correlation energy is -0.486372749223 a.u.
  Convergence information after    34 iterations: 
  Largest element of residual vector :  0.17620267E-10.
  Largest element of DIIS residual   :  0.14449082E-11.
   The total correlation energy is -0.486372749223 a.u.
  Convergence information after    35 iterations: 
  Largest element of residual vector : -0.92537844E-11.
  Largest element of DIIS residual   :  0.32775251E-12.
   The total correlation energy is -0.486372749223 a.u.
  Convergence information after    36 iterations: 
  Largest element of residual vector :  0.96904620E-11.
  Largest element of DIIS residual   : -0.16734222E-12.
   The total correlation energy is -0.486372749223 a.u.
  Convergence information after    37 iterations: 
  Largest element of residual vector : -0.65282458E-11.
  Largest element of DIIS residual   : -0.30244552E-12.
   The total correlation energy is -0.486372749223 a.u.
  Convergence information after    38 iterations: 
  Largest element of residual vector :  0.58869134E-11.
  Largest element of DIIS residual   : -0.11931685E-12.
   The total correlation energy is -0.486372749223 a.u.
  Convergence information after    39 iterations: 
  Largest element of residual vector : -0.41903252E-11.
  Largest element of DIIS residual   : -0.23879051E-12.
   The total correlation energy is -0.486372749223 a.u.
  Convergence information after    40 iterations: 
  Largest element of residual vector :  0.39821106E-11.
  Largest element of DIIS residual   : -0.22061557E-12.
   The total correlation energy is -0.486372749223 a.u.
  Convergence information after    41 iterations: 
  Largest element of residual vector : -0.20697836E-11.
  Largest element of DIIS residual   : -0.21226669E-12.
   The total correlation energy is -0.486372749223 a.u.
  Convergence information after    42 iterations: 
  Largest element of residual vector :  0.28947409E-11.
  Largest element of DIIS residual   : -0.34691303E-13.
   The total correlation energy is -0.486372749223 a.u.
  Convergence information after    43 iterations: 
  Largest element of residual vector : -0.10730106E-11.
  Largest element of DIIS residual   :  0.34389089E-13.
   The total correlation energy is -0.486372749223 a.u.
  Convergence information after    44 iterations: 
  Largest element of residual vector :  0.19258354E-11.
  Largest element of DIIS residual   :  0.25428246E-13.
   The total correlation energy is -0.486372749223 a.u.
  Convergence information after    45 iterations: 
  Largest element of residual vector : -0.44652736E-12.
  Largest element of DIIS residual   :  0.15423807E-13.
  Amplitude equations converged in    45iterations.
   The total correlation energy is -0.486372749223 a.u.
   The CC iterations have converged.

   Largest T1 amplitudes for spin case AA:
   i       a                 i       a                 i       a    
-----------------------------------------------------------------------------
[  6      81    ]-0.01441 [  6      78    ]-0.01317 [  4      33    ]-0.01236
[  4      11    ] 0.00726 [  7      78    ]-0.00710 [  6      79    ]-0.00708
[  4      21    ]-0.00670 [  6      85    ]-0.00626 [  4       9    ]-0.00611
[  3      33    ] 0.00592 [  3      11    ] 0.00567 [  2      21    ]-0.00561
[  6      77    ]-0.00543 [  3      20    ] 0.00512 [  4      40    ]-0.00490
-----------------------------------------------------------------------------
   Norm of T1AA vector (      419 symmetry allowed elements):  0.0425801368.
-----------------------------------------------------------------------------
   Largest T2 amplitudes for spin case AB:
       _       _                 _       _                 _       _
   i   j   a   b             i   j   a   b             i   j   a   b
-----------------------------------------------------------------------------
[  4   4   9   9]-0.02916 [  4   4  11  11]-0.02746 [  4   4  11   9] 0.02731
[  4   4   9  11] 0.02731 [  4   4  14   9] 0.02235 [  4   4   9  14] 0.02235
[  4   4  12   9]-0.02070 [  4   4   9  12]-0.02070 [  4   4  12  11] 0.02055
[  4   4  11  12] 0.02055 [  4   4  14  11]-0.02036 [  4   4  11  14]-0.02036
[  4   4  14  14]-0.02007 [  7   7  81  81]-0.01988 [  3   3  19  19]-0.01860
-----------------------------------------------------------------------------
   Norm of T2AB vector (   279890 symmetry allowed elements):  0.3697888548.
-----------------------------------------------------------------------------
       Summary of iterative solution of CC equations 
      -----------------------------------------------------------
                       Correlation           Total
       Iteration         Energy              Energy
      -----------------------------------------------------------
            0        -0.448429084544    -535.371197126297  DIIS 
            1        -0.471469026214    -535.394237067967  DIIS 
            2        -0.482414903395    -535.405182945148  DIIS 
            3        -0.484971196551    -535.407739238304  DIIS 
            4        -0.486176203626    -535.408944245379  DIIS 
            5        -0.486339158048    -535.409107199801  DIIS 
            6        -0.486363276952    -535.409131318705  DIIS 
            7        -0.486368101783    -535.409136143536  DIIS 
            8        -0.486370059152    -535.409138100905  DIIS 
            9        -0.486371678712    -535.409139720465  DIIS 
           10        -0.486372304800    -535.409140346554  DIIS 
           11        -0.486372665840    -535.409140707593  DIIS 
           12        -0.486372751187    -535.409140792941  DIIS 
           13        -0.486372740836    -535.409140782589  DIIS 
           14        -0.486372744031    -535.409140785784  DIIS 
           15        -0.486372739732    -535.409140781485  DIIS 
           16        -0.486372743756    -535.409140785509  DIIS 
           17        -0.486372745634    -535.409140787387  DIIS 
           18        -0.486372747860    -535.409140789614  DIIS 
           19        -0.486372749372    -535.409140791126  DIIS 
           20        -0.486372749433    -535.409140791186  DIIS 
           21        -0.486372749461    -535.409140791215  DIIS 
           22        -0.486372749294    -535.409140791047  DIIS 
           23        -0.486372749246    -535.409140790999  DIIS 
           24        -0.486372749214    -535.409140790968  DIIS 
           25        -0.486372749219    -535.409140790972  DIIS 
           26        -0.486372749216    -535.409140790969  DIIS 
           27        -0.486372749220    -535.409140790973  DIIS 
           28        -0.486372749222    -535.409140790976  DIIS 
           29        -0.486372749223    -535.409140790976  DIIS 
           30        -0.486372749223    -535.409140790976  DIIS 
           31        -0.486372749223    -535.409140790976  DIIS 
           32        -0.486372749223    -535.409140790976  DIIS 
           33        -0.486372749223    -535.409140790976  DIIS 
           34        -0.486372749223    -535.409140790976  DIIS 
           35        -0.486372749223    -535.409140790976  DIIS 
           36        -0.486372749223    -535.409140790976  DIIS 
           37        -0.486372749223    -535.409140790976  DIIS 
           38        -0.486372749223    -535.409140790976  DIIS 
           39        -0.486372749223    -535.409140790976  DIIS 
           40        -0.486372749223    -535.409140790976  DIIS 
           41        -0.486372749223    -535.409140790976  DIIS 
           42        -0.486372749223    -535.409140790976  DIIS 
           43        -0.486372749223    -535.409140790976  DIIS 
           44        -0.486372749223    -535.409140790976  DIIS 
           45        -0.486372749223    -535.409140790976  DIIS 
      -----------------------------------------------------------
      A miracle has come to pass. The CC iterations have converged.
      The reference energy is      -534.92276804175322 a.u.
      The correlation energy is      -0.48637274922263 a.u.
      The total energy is          -535.40914079097581 a.u.
 @CHECKOUT-I, Total execution time (CPU/WALL):    30609.19/    3851.68 seconds.
--executable xvcc finished with status     0 in     3851.72 seconds (walltime).
  The final electronic energy is      -535.409140790975812 a.u. 
  This computation required                         3867.73 seconds (walltime).
