 --invoking executable--
/home/asmola/.local/bin/xjoda


   *************************************************************************
         <<<     CCCCCC     CCCCCC   |||     CCCCCC     CCCCCC   >>>
       <<<      CCC        CCC       |||    CCC        CCC         >>>
      <<<      CCC        CCC        |||   CCC        CCC            >>>
    <<<        CCC        CCC        |||   CCC        CCC              >>>
      <<<      CCC        CCC        |||   CCC        CCC            >>>
       <<<      CCC        CCC       |||    CCC        CCC         >>>
         <<<     CCCCCC     CCCCCC   |||     CCCCCC     CCCCCC   >>>
   *************************************************************************

     ****************************************************************
     * CFOUR Coupled-Cluster techniques for Computational Chemistry *
     ****************************************************************
 

   Department of Chemistry                Institut fuer Physikalische Chemie
   University of Florida                  Universitaet Mainz
   Gainesville, FL 32611, USA             D-55099 Mainz, Germany

   Department of Chemistry                Fakultaet fuer Chemie und Biowiss.
   Johns Hopkins University               Karlsruher Institut fuer Technologie
   Baltimore, MD 21218, USA               D-76131 Karlsruhe, Germany

   Department of Chemistry                Department of Physical Chemistry
   Southern Methodist University          Eotvos Lorand University
   Dallas, TX 75275, USA                  H-1053 Budapest, Hungary

 
                       Version 2.1
 
                     vincent.theory.phys.ucl.ac.uk                     
                     Thu 30 Jan 06:59:15 GMT 2025                      
                     integer*8 version is running
 
********************************************************************************
*                          Input from ZMAT file                                *
********************************************************************************
Hypochlorous acid DBOC calculation                                              
O                                                                               
H 1 ROH                                                                         
CL 1 ROCL 2 A                                                                   
                                                                                
ROH=1.2500000000000004                                                          
ROCL=1.683                                                                      
A=107.0                                                                         
                                                                                
                                                                                
*CFOUR(CALC=CCSD,BASIS=AUG-PCVTZ,SCF_CONV=10                                    
CC_CONV=10,DBOC=ON,MEMORY=500000000)                                            
********************************************************************************
  @GTFLGS-I, Hessian will be transformed to curvilinear coordinates.
    -------------------------------------------------------------------
                    CFOUR Control Parameters 
    -------------------------------------------------------------------
        External           Internal           Value            Units
          Name               Name
    -------------------------------------------------------------------
       ABCDTYPE             IABCDT         STANDARD    [  0]    ***   
       ANHARMONIC           IANHAR         OFF         [  0]    ***   
       ANH_ALGORIT          IANALG         STANDARD    [  0]    ***   
       ANH_DERIVAT          IANDER         SECOND      [  1]    ***   
       ANH_MODE             ANHMOD         VIBRATION   [  0]    ***   
       ANH_STEPSIZ          ICUBST             50000          x 10-6  
       ANH_SYMMETR          IANHSM         ABELIAN     [  0]    ***   
       AO_LADDERS           IAOLAD         SINGLEPASS  [  1]    ***   
       AV_SCF               IAVSCF         OFF         [  0]    ***   
       BASIS                IBASIS         AUG-PCVTZ   [ 51]    ***   
       BOTHVECTORS          BOTHVC         OFF         [  0]    ***   
       BOX_POTENT           IPIAB          OFF         [  0]    ***   
       BREIT                IBREIT         OFF         [  0]    ***   
       BRUCK_CONV           IBRTOL          10D-  4             ***   
       BRUECKNER            IBRKNR         OFF         [  0]    ***   
       BUFFERSIZE           IBUFFS              4096            ***   
       CACHE_RECS           ICHREC             10               ***   
       CALCLEVEL            ICLLVL         CCSD        [ 10]    ***   
       CCORBOPT             ICCORB         OFF         [  0]  x 0.01  
       CC_CONV              ICCCNV          10D- 10             ***   
       CC_EXPORDER          ICCEOR              5               ***   
       CC_EXTRAPOL          ICCEXT         DIIS        [  1]    ***   
       CC_GUESS             ICCGES         MP2         [  0]    ***   
       CC_MAXCYC            ICCCYC            100              cycles 
       CC_PROGRAM           ICCPRO         VCC         [  0]    ***   
       CHARGE               ICHRGE              0               ***   
       CHOLESKY             ICHOLE         OFF         [  0]    ***   
       CIS_CONV             ICISTL              5               ***   
       COMM_SIZE            IPSIZE            ***               ***   
       CONSTANT             ICONST         OLD         [  1]    ***   
       CONTINUUM            ICONTU         NONE        [  0]    ***   
       CONTRACTION          ICNTYP         GENERAL     [  1]    ***   
       COORDINATES          ICOORD         INTERNAL    [  0]    ***   
       CPHF_CONVER          ICPHFT          10D- 16             ***   
       CPHF_MAXCYC          ICPHFC             64              cycles 
       CUBIC                ICUBIC         OFF         [  0]    ***   
       CURVILINEAR          ICURVY         ON          [  1]    ***   
       DBOC                 IDBOC          ON          [  1]    ***   
       DCT                  IDCT           OFF         [  0]    ***   
       DERIV_LEV            IDRLVL         SECOND      [  2]    ***   
       DEVMEM_SIZE          IDVMEM          50000000           MByte  
       DIAG_MRCC            IEOMST          10D-  0             ***   
       DIFF_TYPE            IDIFTY         RELAXED     [  0]    ***   
       DIRECT               IDIRCT         OFF         [  0]    ***   
       DROPMO               IDRPMO      NONE         
       ECP                  IECP           OFF         [  0]    ***   
       EIGENVECTOR          IVEC                1               ***   
       EL_ANHARM            IELANH         OFF         [  0]    ***   
       EOMFOLLOW            IEOMSR         ENERGY      [  0]    ***   
       EOMIP                IEOMIP         OFF         [  0]    ***   
       EOMLEVEL             HBARFM         SAME        [  0]    ***   
       EOM_MRCC             IMRCCE         NEW         [  1]    ***   
       EOM_NONIT            EOMNON         OFF         [  0]    ***   
       EOM_NSING            IEOMSI          10D-  0             ***   
       EOM_NSTATES          IMRCCD         DAVIDSON    [  0]    ***   
       EOM_NTRIP            IEOMTR          10D-  0             ***   
       EOM_ORDER            IEXORD         ENERGY      [  0]    ***   
       EOM_PROPSTA          IEOMST              0               ***   
       ESTATE_CONV          IEXTOL          10D-  5             ***   
       ESTATE_DIAG          IEXDIG         ITERATIVE   [  0]    ***   
       ESTATE_LOCK          IESLOC         ON          [  1]    ***   
       ESTATE_MAXC          IEXMXC             40               ***   
       ESTATE_PROP          IEXPRP         OFF         [  0]    ***   
       EVAL_HESS            IRECAL              0            # of cyc.
       EXCITATION           IEXCIT              0               ***   
       EXCITE               IEXCIT         NONE        [  0]    ***   
       EXTERN_POT           IEXPOT         OFF         [  0]    ***   
       FCGRADNEW            IFCGNW         OFF         [  0]    ***   
       FC_FIELD             IFINFC              0             x 10-6  
       FD_CALTYPE           IFDCAL         GRADONLY    [  0]    ***   
       FD_PROJECT           IFDPRJ         OFF         [  1]    ***   
       FD_STEPSIZE          IDISFD              0            10-4 bohr
       FD_USEGROUP          IFDGRP         FULL        [  0]    ***   
       FILE_RECSIZ          IFLREC              4096           words  
       FINITE_PERT          IFIPER              0             x 10-6  
       FIXGEOM              IFIXGM         OFF         [  0]    ***   
       FOCK                 IFOCK          AO          [  1]    ***   
       FREQ_ALGORI          IVIALG         STANDARD    [  0]    ***   
       FROZEN_CORE          IFROCO         OFF         [  0]    ***   
       GAMMA_ABCD           IGABCD         STORE       [  0]    ***   
       GAMMA_ABCI           IGABCI         STORE       [  0]    ***   
       GENBAS_1             IGNBS1              0               ***   
       GENBAS_2             IGNBS2              0               ***   
       GENBAS_3             IGNBS3              0               ***   
       GENBAS_4             IGNBS4              0               ***   
       GEO_CONV             ICONTL              5              H/bohr 
       GEO_MAXCYC           IOPTCY             50               ***   
       GEO_MAXSTEP          IMXSTP            300            millibohr
       GEO_METHOD           INR            SINGLE_POINT[  5]    ***   
       GIAO                 IGIAO          OFF         [  1]    ***   
       GIMIC                IGIMIC         OFF         [  0]    ***   
       GRID                 IGRID          OFF         [  0]    ***   
       GRID_ALGO            IGALGO         SERIAL      [  0]    ***   
       GUESS                IGUESS         MOREAD      [  0]    ***   
       HBAR                 IHBAR          OFF         [  0]    ***   
       HESS_TYPE            IHESTP         SCF         [  0]    ***   
       HF2_FILE             IHF2Fl         USE         [  1]    ***   
       HFSTABILITY          ISTABL         OFF         [  0]    ***   
       INCORE               INCORE         OFF         [  0]    ***   
       INPUT_MRCC           IMRCC          ON          [  1]    ***   
       INTEGRALS            INTTYP         VMOL        [  1]    ***   
       JODA_PRINT           IJPRNT              0               ***   
       KEYWORD_OUT          IDMPKW         NO          [  0]    ***   
       LINDEP_TOL           ILINDP              8               ***   
       LINEQ_CONV           IZTACN          10D-  7           cycles  
       LINEQ_EXPOR          ILMAXD              5               ***   
       LINEQ_MAXCY          ILMAXC            100               ***   
       LINEQ_TYPE           ILTYPE         DIIS        [  1]    ***   
       LOCK_ORBOCC          ILOCOC         OFF         [  0]    ***   
       MEMORY_SIZE          IMEMSZ         500000000           words  
       MEM_UNIT             IMEMU          INTEGERWORDS[  0]    ***   
       MRCC                 IMRCCC         OFF         [  0]    ***   
       MULTIPLICTY          IMULTP              1               ***   
       NACOUPLING           IVCOUP         OFF         [  0]    ***   
       NEGEVAL              IDIE           ABORT       [  0]    ***   
       NEWNORM              INEWNO         OFF         [  0]    ***   
       NON-HF               INONHF         OFF         [  0]    ***   
       NTOP_TAMP            ITOPT2             15               ***   
       NUC_MODEL            INUCMO         POINT       [  0]    ***   
       OCCUPATION           IOCCU   ESTIMATED BY SCF 
       OPEN-SHELL           IOPEN          SPIN-ORBITAL[  0]    ***   
       OPTVIB               IOPTVB         OFF         [  0]    ***   
       ORBITALS             IORBTP         STANDARD    [  0]    ***   
       PARALLEL             IPARAL         ON          [  1]    ***   
       PARA_INT             IPINTS         ON          [  1]    ***   
       PARA_PRINT           IPPRIN              0               ***   
       PERT_ORB             IPTORB         STANDARD    [  0]    ***   
       POINTS               IGRDFD              0               ***   
       PRINT                IPRNT               0               ***   
       PROPS                IPROPS         OFF         [  0]    ***   
       PROP_INTEGR          IINTYP         INTERNAL    [  0]    ***   
       PSI                  IPSI           OFF         [  0]    ***   
       QC_ALG               IQCALG         FLM         [  0]    ***   
       QC_LINALG            IQCLIN         TRIDIAG     [  2]    ***   
       QC_MAXCYC            IQCMAX          10D-100           cycles  
       QC_MAXSCFCY          IQCMSC          10D- 15           cycles  
       QC_RTRUST            IQCRTR          10D-  0           x 10-3  
       QC_SKIPSCF           IQCSKI         OFF         [  0]    ***   
       QC_START             IQCSTA          10D-  1             ***   
       QRHFGUESS            IQGUES         OFF         [  0]    ***   
       QUARTIC              IQUART         OFF         [  0]    ***   
       RAMAN_INT            IRAMIN         OFF         [  0]    ***   
       RAMAN_ORB            IRAMRE         UNRELAXED   [  0]    ***   
       RDO                  IRDOFM         ON          [  1]    ***   
       REDUCE_REPR          REDREP         Ir          [  0]    ***   
       REFERENCE            IREFNC         RHF         [  0]    ***   
       RELATIVIST           IRELAT         OFF         [  0]    ***   
       RELAX_DENS           IRDENS         ON          [  1]    ***   
       RESET_FLAGS          IRESET         OFF         [  0]    ***   
       RESTART_CC           ICCRES         OFF         [  0]    ***   
       ROT_EVEC             ROTVEC              0               ***   
       SAVE_INTS            ISVINT         OFF         [  0]    ***   
       SCALE_ON             ISTCRT              0               ***   
       SCF_CONV             ISCFCV          10D- 10             ***   
       SCF_DAMPING          IDAMP               0             x 10-3  
       SCF_EXPORDE          IRPPOR              6               ***   
       SCF_EXPSTAR          IRPPLS              8               ***   
       SCF_EXTRAPO          IRPP           ON          [  1]    ***   
       SCF_MAXCYC           ISCFCY            150              cycles 
       SCF_NOSTOP           ISCFST         OFF         [  0]    ***   
       SCF_PRINT            ISCFPR              0               ***   
       SCF_PROG             ISCFPR         SCF         [  0]    ***   
       SD_FIELD             IFINSD              0             x 10-6  
       SOPERT               IPERSO         OFF         [  0]    ***   
       SPHERICAL            IDFGHI         ON          [  1]    ***   
       SPINORBIT            ISOCAL         OFF         [  0]    ***   
       SPINROTATIO          ISRCON         OFF         [  0]    ***   
       SPIN_FLIP            ISPFLP         OFF         [  0]    ***   
       SPIN_ORBIT           ISPORB         OFF         [  0]    ***   
       SPIN_SCAL            ISCSMP         OFF         [  0]    ***   
       STEEPSCALE           ISTPSC              1000          x 10-3  
       SUBGROUP             ISUBGP         DEFAULT     [  0]    ***   
       SUBGRPAXIS           ISBXYZ         X           [  0]    ***   
       SYMMETRY             ISYM           ON          [  0]    ***   
       SYM_CHECK            ISYMCK         OVERRIDE    [  1]    ***   
       T3_EXTRAPOL          IT3EXT         OFF         [  0]    ***   
       T4_EXTRAPOL          IT4EXP         OFF         [  0]    ***   
       TAMP_SUM             IEVERY              5               ***   
       TESTSUITE            ITESTS         OFF         [  0]    ***   
       THERMOCH             ITHERM         OFF         [  0]    ***   
       TOL_CHOLESK          ITOLCH          10D-  4             ***   
       TRANGRAD             IRESRM         OFF         [  0]    ***   
       TRANS_INV            ITRAIN         IGNORE      [  1]    ***   
       TREAT_PERT           ITREAT         SIMULTANEOUS[  0]    ***   
       TRIP_ALGORI          ITRALG         NORMAL      [  0]    ***   
       UIJ_THRESHO          IUIJTH              1               ***   
       UNITS                IUNITS         ANGSTROM    [  0]    ***   
       UNOS                 IUNOS          OFF         [  0]    ***   
       UPDATE_HESS          IHUPDT         ON          [  1]    ***   
       VIBPHASE             ISETPH         STANDARD    [  0]    ***   
       VIBRATION            IVIB           ANALYTIC    [  1]    ***   
       VIB_ALGORIT          IGEALG         STANDARD    [  0]    ***   
       VNATORB              IVNORB         OFF         [  0]    ***   
       VTRAN                IVTRAN         FULL/PARTIAL[  0]    ***   
       XFIELD               IXEFLD              0             x 10-6  
       XFORM_TOL            IXFTOL          10D- 11             ***   
       YFIELD               IYEFLD              0             x 10-6  
       ZFIELD               IZEFLD              0             x 10-6  
       ZSCALE_EXP           IZEXPS         OFF         [  0]    ***   
    -------------------------------------------------------------------
   3 entries found in Z-matrix 
   Job Title : Hypochlorous acid DBOC calculation                                              
   There are  3 unique internal coordinates.
   Of these,  0 will be optimized.
   User supplied Z-matrix: 
--------------------------------------------------------------------------------
       SYMBOL    BOND      LENGTH    ANGLE     ANGLE     DIHED     ANGLE
                  TO      (ANGST)    WRT      (DEG)      WRT      (DEG)
--------------------------------------------------------------------------------
        O    
        H          1         ROH  
        CL         1         ROCL       2        A    
                  *Initial values for internal coordinates* 
                      Name             Value
                        ROH             1.2500000000
                        ROCL            1.6830000000
                        A             107.0000000000
--------------------------------------------------------------------------------
   Rotational constants (in cm-1): 
          0.4846562010             0.5036476265            12.8529553944
   Rotational constants (in MHz): 
      14529.6294128169         15098.9781068050        385321.9630090074
********************************************************************************
   The full molecular point group is C s .
   The largest Abelian subgroup of the full molecular point group is C s .
   The computational point group is C s .
********************************************************************************
--------------------------------------------------------------------------------
   Analysis of internal coordinates specified by Z-matrix 
--------------------------------------------------------------------------------
   *The nuclear repulsion energy is   49.941522258902644 a.u.
   *There are   3 degrees of freedom within the tot. symm. molecular subspace.
   *Z-matrix requests optimization of   0 coordinates.
   *The optimization is constrained.
   *The following   3 parameters can have non-zero 
    derivatives within the totally symmetric subspace:
             A    [ 3]  ROH  [ 1]  ROCL [ 2]
   *The following   0 parameters are to be optimized:

   *The following coordinates must be varied in an  unconstrained optimization.
             A    [ 3]  ROH  [ 1]  ROCL [ 2]
--------------------------------------------------------------------------------


 ----------------------------------------------------------------
         Coordinates used in calculation (QCOMP) 
 ----------------------------------------------------------------
 Z-matrix   Atomic            Coordinates (in bohr)
  Symbol    Number           X              Y              Z
 ----------------------------------------------------------------
     O         8        -2.12075253     0.16268171     0.00000000
     H         1        -2.93665104    -2.05409540     0.00000000
     CL       17         1.05467819    -0.01521100     0.00000000
 ----------------------------------------------------------------
 
   Interatomic distance matrix (Angstroms) 
 
                 O             H             CL   
                [ 1]        [ 2]        [ 3]
  O    [ 1]     0.00000
  H    [ 2]     1.25000     0.00000
  CL   [ 3]     1.68300     2.37174     0.00000
 rotcon2
   Rotational constants (in cm-1): 
         12.8529553944             0.5036476265             0.4846562010
   Rotational constants (in MHz): 
     385321.9630090079         15098.9781068050         14529.6294128169
  ECPDATA file not present.   Using default ECPDATA. 
  @GTFLGS-I, Hessian will be transformed to curvilinear coordinates.
  There are  157 basis functions.
 @CHECKOUT-I, Total execution time (CPU/WALL):        0.20/       0.26 seconds.
--executable xjoda finished with status     0 in        0.30 seconds (walltime).
 --invoking executable--
/home/asmola/.local/bin/xvmol
 SERIAL VERSION OF MOLECULE STARTED
********************************************************************************
                    INPUT FROM MOL FILE
********************************************************************************
INTGRL        1    0    1    0    0    0    0    0    0                         
         *** CFOUR Program System (Release V0.1) ***                            
Hypochlorous acid DBOC calculation                                              
    3    1 Z          0.10E-08              0    0                              
   9999.00      3.00                                                            
          8.00000000    1    4    1    1    1    1                              
O #1  -2.120752533993336   0.162681712526340   0.000000000000000                
   13    7                                                                      
   15330.0000000000       5.080000000000000E-004 -1.150000000000000E-004        
  0.000000000000000E+000  0.000000000000000E+000  0.000000000000000E+000        
  0.000000000000000E+000  0.000000000000000E+000                                
   2299.00000000000       3.929000000000000E-003 -8.950000000000000E-004        
  0.000000000000000E+000  0.000000000000000E+000  0.000000000000000E+000        
  0.000000000000000E+000  0.000000000000000E+000                                
   522.400000000000       2.024300000000000E-002 -4.636000000000000E-003        
  0.000000000000000E+000  0.000000000000000E+000  0.000000000000000E+000        
  0.000000000000000E+000  0.000000000000000E+000                                
   147.300000000000       7.918100000000000E-002 -1.872400000000000E-002        
  0.000000000000000E+000  0.000000000000000E+000  0.000000000000000E+000        
  0.000000000000000E+000  0.000000000000000E+000                                
   47.5500000000000       0.230687000000000      -5.846300000000000E-002        
  0.000000000000000E+000  0.000000000000000E+000  0.000000000000000E+000        
  0.000000000000000E+000  0.000000000000000E+000                                
   16.7600000000000       0.433118000000000      -0.136463000000000             
  0.000000000000000E+000  0.000000000000000E+000  0.000000000000000E+000        
  0.000000000000000E+000  0.000000000000000E+000                                
   6.20700000000000       0.350260000000000      -0.175740000000000             
  0.000000000000000E+000  0.000000000000000E+000  0.000000000000000E+000        
  0.000000000000000E+000  0.000000000000000E+000                                
   1.75200000000000       4.272800000000000E-002  0.160934000000000             
   1.00000000000000       0.000000000000000E+000  0.000000000000000E+000        
  0.000000000000000E+000  0.000000000000000E+000                                
  0.688200000000000      -8.154000000000000E-003  0.603418000000000             
  0.000000000000000E+000  0.000000000000000E+000  0.000000000000000E+000        
  0.000000000000000E+000  0.000000000000000E+000                                
  0.238400000000000       2.381000000000000E-003  0.378765000000000             
  0.000000000000000E+000   1.00000000000000       0.000000000000000E+000        
  0.000000000000000E+000  0.000000000000000E+000                                
   7.84500000000000       0.000000000000000E+000  0.000000000000000E+000        
  0.000000000000000E+000  0.000000000000000E+000   1.00000000000000             
  0.000000000000000E+000  0.000000000000000E+000                                
   21.0320000000000       0.000000000000000E+000  0.000000000000000E+000        
  0.000000000000000E+000  0.000000000000000E+000  0.000000000000000E+000        
   1.00000000000000       0.000000000000000E+000                                
  7.376000000000001E-002  0.000000000000000E+000  0.000000000000000E+000        
  0.000000000000000E+000  0.000000000000000E+000  0.000000000000000E+000        
  0.000000000000000E+000   1.00000000000000                                     
    8    6                                                                      
   34.4600000000000       1.592800000000000E-002  0.000000000000000E+000        
  0.000000000000000E+000  0.000000000000000E+000  0.000000000000000E+000        
  0.000000000000000E+000                                                        
   7.74900000000000       9.974000000000000E-002  0.000000000000000E+000        
  0.000000000000000E+000  0.000000000000000E+000  0.000000000000000E+000        
  0.000000000000000E+000                                                        
   2.28000000000000       0.310492000000000       0.000000000000000E+000        
  0.000000000000000E+000  0.000000000000000E+000  0.000000000000000E+000        
  0.000000000000000E+000                                                        
  0.715600000000000       0.491026000000000        1.00000000000000             
  0.000000000000000E+000  0.000000000000000E+000  0.000000000000000E+000        
  0.000000000000000E+000                                                        
  0.214000000000000       0.336337000000000       0.000000000000000E+000        
   1.00000000000000       0.000000000000000E+000  0.000000000000000E+000        
  0.000000000000000E+000                                                        
   15.1590000000000       0.000000000000000E+000  0.000000000000000E+000        
  0.000000000000000E+000   1.00000000000000       0.000000000000000E+000        
  0.000000000000000E+000                                                        
   57.4370000000000       0.000000000000000E+000  0.000000000000000E+000        
  0.000000000000000E+000  0.000000000000000E+000   1.00000000000000             
  0.000000000000000E+000                                                        
  5.974000000000000E-002  0.000000000000000E+000  0.000000000000000E+000        
  0.000000000000000E+000  0.000000000000000E+000  0.000000000000000E+000        
   1.00000000000000                                                             
    4    4                                                                      
   2.31400000000000        1.00000000000000       0.000000000000000E+000        
  0.000000000000000E+000  0.000000000000000E+000                                
  0.645000000000000       0.000000000000000E+000   1.00000000000000             
  0.000000000000000E+000  0.000000000000000E+000                                
   15.8580000000000       0.000000000000000E+000  0.000000000000000E+000        
   1.00000000000000       0.000000000000000E+000                                
  0.214000000000000       0.000000000000000E+000  0.000000000000000E+000        
  0.000000000000000E+000   1.00000000000000                                     
    2    2                                                                      
   1.42800000000000        1.00000000000000       0.000000000000000E+000        
  0.500000000000000       0.000000000000000E+000   1.00000000000000             
          1.00000000    1    3    1    1    1                                   
H #2  -2.936651036054228  -2.054095399383874   0.000000000000000                
    6    4                                                                      
   33.8700000000000       6.068000000000000E-003  0.000000000000000E+000        
  0.000000000000000E+000  0.000000000000000E+000                                
   5.09500000000000       4.530800000000000E-002  0.000000000000000E+000        
  0.000000000000000E+000  0.000000000000000E+000                                
   1.15900000000000       0.202822000000000       0.000000000000000E+000        
  0.000000000000000E+000  0.000000000000000E+000                                
  0.325800000000000       0.503903000000000        1.00000000000000             
  0.000000000000000E+000  0.000000000000000E+000                                
  0.102700000000000       0.383421000000000       0.000000000000000E+000        
   1.00000000000000       0.000000000000000E+000                                
  2.526000000000000E-002  0.000000000000000E+000  0.000000000000000E+000        
  0.000000000000000E+000   1.00000000000000                                     
    3    3                                                                      
   1.40700000000000        1.00000000000000       0.000000000000000E+000        
  0.000000000000000E+000                                                        
  0.388000000000000       0.000000000000000E+000   1.00000000000000             
  0.000000000000000E+000                                                        
  0.102000000000000       0.000000000000000E+000  0.000000000000000E+000        
   1.00000000000000                                                             
    2    2                                                                      
   1.05700000000000        1.00000000000000       0.000000000000000E+000        
  0.247000000000000       0.000000000000000E+000   1.00000000000000             
         17.00000000    1    4    1    1    1    1                              
CL#3   1.054678186328528  -0.015211003351682   0.000000000000000                
   18    8                                                                      
   456100.000000000       4.930000000000000E-005 -1.380000000000000E-005        
  4.200000000000000E-006  0.000000000000000E+000  0.000000000000000E+000        
  0.000000000000000E+000  0.000000000000000E+000  0.000000000000000E+000        
   68330.0000000000       3.830000000000000E-004 -1.073000000000000E-004        
  3.240000000000000E-005  0.000000000000000E+000  0.000000000000000E+000        
  0.000000000000000E+000  0.000000000000000E+000  0.000000000000000E+000        
   15550.0000000000       2.008500000000000E-003 -5.651000000000000E-004        
  1.711000000000000E-004  0.000000000000000E+000  0.000000000000000E+000        
  0.000000000000000E+000  0.000000000000000E+000  0.000000000000000E+000        
   4405.00000000000       8.385600000000000E-003 -2.361400000000000E-003        
  7.142000000000000E-004  0.000000000000000E+000  0.000000000000000E+000        
  0.000000000000000E+000  0.000000000000000E+000  0.000000000000000E+000        
   1439.00000000000       2.947030000000000E-002 -8.458900000000000E-003        
  2.567000000000000E-003  0.000000000000000E+000  0.000000000000000E+000        
  0.000000000000000E+000  0.000000000000000E+000  0.000000000000000E+000        
   520.400000000000       8.783249999999999E-002 -2.596380000000000E-002        
  7.885500000000000E-003  0.000000000000000E+000  0.000000000000000E+000        
  0.000000000000000E+000  0.000000000000000E+000  0.000000000000000E+000        
   203.100000000000       0.211473000000000      -6.863619999999999E-002        
  2.108670000000000E-002  0.000000000000000E+000  0.000000000000000E+000        
  0.000000000000000E+000  0.000000000000000E+000  0.000000000000000E+000        
   83.9600000000000       0.365364000000000      -0.141874000000000             
  4.422640000000000E-002  0.000000000000000E+000  0.000000000000000E+000        
  0.000000000000000E+000  0.000000000000000E+000  0.000000000000000E+000        
   36.2000000000000       0.340884000000000      -0.199319000000000             
  6.516700000000000E-002  0.000000000000000E+000  0.000000000000000E+000        
  0.000000000000000E+000  0.000000000000000E+000  0.000000000000000E+000        
   15.8300000000000       0.102133000000000      -1.956620000000000E-002        
  6.030100000000000E-003  0.000000000000000E+000  0.000000000000000E+000        
  0.000000000000000E+000  0.000000000000000E+000  0.000000000000000E+000        
   6.33400000000000       3.116800000000000E-003  0.499741000000000             
 -0.206495000000000       0.000000000000000E+000  0.000000000000000E+000        
  0.000000000000000E+000  0.000000000000000E+000  0.000000000000000E+000        
   2.69400000000000       1.057500000000000E-003  0.563736000000000             
 -0.405871000000000       0.000000000000000E+000  0.000000000000000E+000        
  0.000000000000000E+000  0.000000000000000E+000  0.000000000000000E+000        
  0.976800000000000      -3.780000000000000E-004  7.903250000000001E-002        
  7.595580000000000E-002   1.00000000000000       0.000000000000000E+000        
  0.000000000000000E+000  0.000000000000000E+000  0.000000000000000E+000        
  0.431300000000000       1.561000000000000E-004 -8.350900000000000E-003        
  0.725661000000000       0.000000000000000E+000  0.000000000000000E+000        
  0.000000000000000E+000  0.000000000000000E+000  0.000000000000000E+000        
  0.162500000000000      -5.140000000000000E-005  2.324600000000000E-003        
  0.394423000000000       0.000000000000000E+000   1.00000000000000             
  0.000000000000000E+000  0.000000000000000E+000  0.000000000000000E+000        
   15.0640000000000       0.000000000000000E+000  0.000000000000000E+000        
  0.000000000000000E+000  0.000000000000000E+000  0.000000000000000E+000        
   1.00000000000000       0.000000000000000E+000  0.000000000000000E+000        
   2.87400000000000       0.000000000000000E+000  0.000000000000000E+000        
  0.000000000000000E+000  0.000000000000000E+000  0.000000000000000E+000        
  0.000000000000000E+000   1.00000000000000       0.000000000000000E+000        
  5.910000000000000E-002  0.000000000000000E+000  0.000000000000000E+000        
  0.000000000000000E+000  0.000000000000000E+000  0.000000000000000E+000        
  0.000000000000000E+000  0.000000000000000E+000   1.00000000000000             
   12    7                                                                      
   663.300000000000       2.404500000000000E-003 -6.521000000000000E-004        
  0.000000000000000E+000  0.000000000000000E+000  0.000000000000000E+000        
  0.000000000000000E+000  0.000000000000000E+000                                
   156.800000000000       1.921480000000000E-002 -5.194500000000000E-003        
  0.000000000000000E+000  0.000000000000000E+000  0.000000000000000E+000        
  0.000000000000000E+000  0.000000000000000E+000                                
   49.9800000000000       8.850970000000000E-002 -2.469380000000000E-002        
  0.000000000000000E+000  0.000000000000000E+000  0.000000000000000E+000        
  0.000000000000000E+000  0.000000000000000E+000                                
   18.4200000000000       0.256020000000000      -7.281670000000000E-002        
  0.000000000000000E+000  0.000000000000000E+000  0.000000000000000E+000        
  0.000000000000000E+000  0.000000000000000E+000                                
   7.24000000000000       0.436927000000000      -0.134030000000000             
  0.000000000000000E+000  0.000000000000000E+000  0.000000000000000E+000        
  0.000000000000000E+000  0.000000000000000E+000                                
   2.92200000000000       0.350334000000000      -9.477420000000000E-002        
  0.000000000000000E+000  0.000000000000000E+000  0.000000000000000E+000        
  0.000000000000000E+000  0.000000000000000E+000                                
   1.02200000000000       5.854950000000000E-002  0.262289000000000             
   1.00000000000000       0.000000000000000E+000  0.000000000000000E+000        
  0.000000000000000E+000  0.000000000000000E+000                                
  0.381800000000000      -4.584200000000000E-003  0.564667000000000             
  0.000000000000000E+000  0.000000000000000E+000  0.000000000000000E+000        
  0.000000000000000E+000  0.000000000000000E+000                                
  0.130100000000000       2.269700000000000E-003  0.341250000000000             
  0.000000000000000E+000   1.00000000000000       0.000000000000000E+000        
  0.000000000000000E+000  0.000000000000000E+000                                
   9.48000000000000       0.000000000000000E+000  0.000000000000000E+000        
  0.000000000000000E+000  0.000000000000000E+000   1.00000000000000             
  0.000000000000000E+000  0.000000000000000E+000                                
   3.66800000000000       0.000000000000000E+000  0.000000000000000E+000        
  0.000000000000000E+000  0.000000000000000E+000  0.000000000000000E+000        
   1.00000000000000       0.000000000000000E+000                                
  4.190000000000000E-002  0.000000000000000E+000  0.000000000000000E+000        
  0.000000000000000E+000  0.000000000000000E+000  0.000000000000000E+000        
  0.000000000000000E+000   1.00000000000000                                     
    5    5                                                                      
   1.04600000000000        1.00000000000000       0.000000000000000E+000        
  0.000000000000000E+000  0.000000000000000E+000  0.000000000000000E+000        
  0.344000000000000       0.000000000000000E+000   1.00000000000000             
  0.000000000000000E+000  0.000000000000000E+000  0.000000000000000E+000        
   17.9570000000000       0.000000000000000E+000  0.000000000000000E+000        
   1.00000000000000       0.000000000000000E+000  0.000000000000000E+000        
   5.76000000000000       0.000000000000000E+000  0.000000000000000E+000        
  0.000000000000000E+000   1.00000000000000       0.000000000000000E+000        
  0.135000000000000       0.000000000000000E+000  0.000000000000000E+000        
  0.000000000000000E+000  0.000000000000000E+000   1.00000000000000             
    3    3                                                                      
  0.706000000000000        1.00000000000000       0.000000000000000E+000        
  0.000000000000000E+000                                                        
   11.7790000000000       0.000000000000000E+000   1.00000000000000             
  0.000000000000000E+000                                                        
  0.312000000000000       0.000000000000000E+000  0.000000000000000E+000        
   1.00000000000000                                                             
FINISH                                                                          
 
********************************************************************************
 ONE- AND TWO-ELECTRON INTEGRALS OVER SYMMETRY-ADAPTED AOS ARE CALCULATED.

  SPHERICAL HARMONICS ARE USED.
  
  INTEGRALS LESS THAN  0.10E-13 ARE NEGLECTED.

  NUCLEAR REPULSION ENERGY :   49.9415222589 A.U.
  @MOLECU-I, ONE ELECTRON INTEGRALS (CPU/WALL):        0.04/       0.05 SECONDS.
  @TWOEL-I,   14228799 INTEGRALS OF SYMMETRY TYPE  I I I I
  @TWOEL-I,   13438604 INTEGRALS OF SYMMETRY TYPE  I J I J
  @TWOEL-I,    6942201 INTEGRALS OF SYMMETRY TYPE  I I J J
  @TWOEL-I, TOTAL NUMBER OF 2-E INTEGRALS   34609604.
  @MOLECU-I, TWO ELECTRON INTEGRALS (CPU/WALL):       53.25/       9.25 SECONDS.
 @CHECKOUT-I, Total execution time (CPU/WALL):       53.31/       9.32 seconds.

Running with 14 threads/proc

--executable xvmol finished with status     0 in        9.36 seconds (walltime).
 --invoking executable--
/home/asmola/.local/bin/xvmol2ja
 @GETMEM-I,  Allocated    3814 MB of main memory.
 @CHECKOUT-I, Total execution time (CPU/WALL):        0.11/       0.03 seconds.
--executable xvmol2ja finished with status     0 in        0.07 seconds (walltime).
 --invoking executable--
/home/asmola/.local/bin/xvscf
  There are  157 functions in the AO basis.

  There are 2 irreducible representations.

       Irrep        # of functions
         1                104
         2                 53


  Parameters for SCF calculation: 
        SCF reference function:  RHF  
  Maximum number of iterations:  150
     Full symmetry point group: C s 
     Computational point group: C s 
        Initial density matrix: MOREAD                 
     SCF convergence tolerance: 10**(-10)
  DIIS convergence acceleration:  ON
          Latest start for DIIS:   8
                     DIIS order:   6

  Memory information:    1209746 words required.
  Fock matrices are constructed from AO integral file.
 @GETMEM-I,  Allocated       9 MB of main memory.
  Initialization and symmetry analysis required      0.002 seconds.

  @INITGES-I, Occupancies from core Hamiltonian:

          Alpha population by irrep:  10    3
           Beta population by irrep:  10    3


 total no. of electrons in initial guess :  0.000000000000000E+000
  --------------------------------------------------------------------
  Iteration         Total Energy            Largest Density Difference
  --------------------------------------------------------------------
       0            49.941522258902644              0.0000000000D+00
   current occupation vector 
    10  3
    10  3
       1          -365.869373071397206              0.1326121528D+02
   current occupation vector 
    10  3
    10  3
       2          -341.240024223359967              0.1323954190D+02
   current occupation vector 
    10  3
    10  3
       3          -421.809848913574172              0.1072134578D+02
   current occupation vector 
    10  3
    10  3
       4          -339.199398995112517              0.1072774085D+02
   current occupation vector 
    10  3
    10  3
       5          -421.640544035277571              0.1068502018D+02
   current occupation vector 
    10  3
    10  3
       6          -339.149712581505753              0.1068513788D+02
   current occupation vector 
    10  3
    10  3
       7          -421.635724687993388              0.1068394835D+02
   current occupation vector 
    10  3
    10  3
       8          -339.148505376594642              0.1068395128D+02
   current occupation vector 
    10  3
    10  3
       9          -445.126213136458830              0.8418693747D+01
   current occupation vector 
    10  3
    10  3
      10          -462.715211007419157              0.1946901098D+01
   current occupation vector 
    10  3
    10  3
      11          -466.220058502590177              0.3958655744D+00
   current occupation vector 
    10  3
    10  3
      12          -465.677365897654681              0.7181658479D-01
   current occupation vector 
    10  3
    10  3
      13          -469.171616415523772              0.4331624227D+00
   current occupation vector 
    10  3
    10  3
      14          -473.181341904055671              0.5028578441D+00
   current occupation vector 
    10  3
    10  3
      15          -475.704289097040373              0.7549641543D+01
   current occupation vector 
    10  3
    10  3
      16          -511.372766614610669              0.7549433909D+01
   current occupation vector 
    10  3
    10  3
      17          -525.957303422050700              0.3820132876D+01
   current occupation vector 
    11  2
    11  2
      18          -532.157364095846901              0.3284652632D+01
   current occupation vector 
    11  2
    11  2
      19          -534.747931598794594              0.1742890853D+01
   current occupation vector 
    10  3
    10  3
      20          -534.856333743441041              0.3528771208D+00
   current occupation vector 
    10  3
    10  3
      21          -534.868240425089425              0.1356545627D+00
   current occupation vector 
    10  3
    10  3
      22          -534.869596319760262              0.3698263884D-01
   current occupation vector 
    10  3
    10  3
      23          -534.869771743928595              0.1820500543D-01
   current occupation vector 
    10  3
    10  3
      24          -534.869812746990533              0.8958073075D-02
   current occupation vector 
    10  3
    10  3
      25          -534.869815003968483              0.1802058122D-02
   current occupation vector 
    10  3
    10  3
      26          -534.869815318724363              0.6872052992D-03
   current occupation vector 
    10  3
    10  3
      27          -534.869815344031963              0.1723304353D-03
   current occupation vector 
    10  3
    10  3
      28          -534.869815351104307              0.1215607614D-03
   current occupation vector 
    10  3
    10  3
      29          -534.869815352129990              0.5056360366D-04
   current occupation vector 
    10  3
    10  3
      30          -534.869815352230376              0.1355139152D-04
   current occupation vector 
    10  3
    10  3
      31          -534.869815352265846              0.6544701014D-05
   current occupation vector 
    10  3
    10  3
      32          -534.869815352267779              0.2013012932D-05
   current occupation vector 
    10  3
    10  3
      33          -534.869815352266187              0.1053043062D-05
   current occupation vector 
    10  3
    10  3
      34          -534.869815352260957              0.2530183172D-06
   current occupation vector 
    10  3
    10  3
      35          -534.869815352264254              0.4619148558D-07
   current occupation vector 
    10  3
    10  3
      36          -534.869815352266414              0.2944263057D-07
   current occupation vector 
    10  3
    10  3
      37          -534.869815352264254              0.1939681675D-07
   current occupation vector 
    10  3
    10  3
      38          -534.869815352268233              0.3804306745D-08
   current occupation vector 
    10  3
    10  3
      39          -534.869815352265164              0.1569768815D-08
   current occupation vector 
    10  3
    10  3
      40          -534.869815352261753              0.6319719748D-09
   current occupation vector 
    10  3
    10  3
      41          -534.869815352265391              0.2421689238D-09
   current occupation vector 
    10  3
    10  3
      42          -534.869815352267096              0.1009973216D-09
   current occupation vector 
    10  3
    10  3

  SCF has converged.

 Density matrix saved to file den.dat
 total electron number:   26.0000000000003     
     E(SCF)=      -534.869815352267892              0.3439448726D-10

  Eigenvector printing suppressed.

 @PUTMOS-I, Writing converged MOs to NEWMOS. 
 @PUTMOS-I, Symmetry   1 Full Blocks 26 Partial Blocksize   0
 @PUTMOS-I, Symmetry   2 Full Blocks 13 Partial Blocksize   1
 @PUTFOCK-I, Writing converged Fock matrix to NEWFOCK. 
 @PUTFOCK-I, Symmetry   1 Full Blocks 26 Partial Blocksize   0
 @PUTFOCK-I, Symmetry   2 Full Blocks 13 Partial Blocksize   1


 
  ORBITAL EIGENVALUES (ALPHA)  (1H = 27.2113834 eV)

       MO #        E(hartree)               E(eV)           FULLSYM    COMPSYM
       ----   --------------------   --------------------   -------   ---------
    1     1        -104.8850561330       -2854.0674753644     A'        A'  (1)
    2     2         -20.6569670805        -562.1046511080     A'        A'  (1)
    3     3         -10.6050198720        -288.5772617013     A'        A'  (1)
    4     4          -8.0717323945        -219.6430048885     A'        A'  (1)
    5     5          -8.0694494142        -219.5808818374     A'        A'  (1)
    6   105          -8.0692928970        -219.5766227862     A''       A'' (2)
    7     6          -1.3707510562         -37.3000325375     A'        A'  (1)
    8     7          -1.0391089423         -28.2755918243     A'        A'  (1)
    9     8          -0.6545756250         -17.8119082952     A'        A'  (1)
   10   106          -0.6059566959         -16.4889199752     A''       A'' (2)
   11     9          -0.5941943257         -16.1688496120     A'        A'  (1)
   12    10          -0.4528949405         -12.3238978670     A'        A'  (1)
   13   107          -0.4364920954         -11.8775537581     A''       A'' (2)
  +++++++++++++++++++++++++++++++++++++++++++++++++++++++++++++++++++++++++++++
   14    11           0.0180170581           0.4902690762     A'        A'  (1)
   15    12           0.0621563993           1.6913616111     A'        A'  (1)
   16    13           0.1073395294           2.9208570873     A'        A'  (1)
   17   108           0.1170937513           3.1862829609     A''       A'' (2)
   18    14           0.1277406927           3.4760009656     A'        A'  (1)
   19    15           0.1550852676           4.2200846761     A'        A'  (1)
   20    16           0.1677426310           4.5645090435     A'        A'  (1)
   21    17           0.1751718383           4.7666680523     A'        A'  (1)
   22   109           0.1920912831           5.2270695515     A''       A'' (2)
   23    18           0.2270596461           6.1786070859     A'        A'  (1)
   24   110           0.2535609380           6.8997438981     A''       A'' (2)
   25    19           0.2953999510           8.0382413218     A'        A'  (1)
   26    20           0.3290124586           8.9528841532     A'        A'  (1)
   27    21           0.3539121940           9.6304404013     A'        A'  (1)
   28   111           0.3807440532          10.3605724098     A''       A'' (2)
   29    22           0.3907916034          10.6339801509     A'        A'  (1)
   30   112           0.4234911199          11.5237792295     A''       A'' (2)
   31    23           0.4553460171          12.3905950514     A'        A'  (1)
   32    24           0.5066318544          13.7861536318     A'        A'  (1)
   33    25           0.5969048714          16.2426073100     A'        A'  (1)
   34   113           0.6157661442          16.7558486332     A''       A'' (2)
   35    26           0.6717243681          18.2785493200     A'        A'  (1)
   36    27           0.6887900002          18.7429287766     A'        A'  (1)
   37   114           0.7336833521          19.9645389878     A''       A'' (2)
   38    28           0.7415649831          20.1790090725     A'        A'  (1)
   39    29           0.7658235521          20.8391182918     A'        A'  (1)
   40   115           0.7714504144          20.9922330011     A''       A'' (2)
   41    30           0.8435223730          22.9534106973     A'        A'  (1)
   42    31           0.8546128984          23.2551992374     A'        A'  (1)
   43   116           0.8651038278          23.5406719390     A''       A'' (2)
   44   117           0.9032067483          24.5775051174     A''       A'' (2)
   45    32           0.9039076018          24.5965763101     A'        A'  (1)
   46   118           0.9301678094          25.3111528875     A''       A'' (2)
   47    33           0.9315620975          25.3490933959     A'        A'  (1)
   48    34           0.9556027112          26.0032717518     A'        A'  (1)
   49   119           0.9698593341          26.3912141844     A''       A'' (2)
   50    35           1.0061273040          27.3781158196     A'        A'  (1)
   51    36           1.0194717529          27.7412367342     A'        A'  (1)
   52    37           1.1184964508          30.4358357533     A'        A'  (1)
   53   120           1.1297127269          30.7410461442     A''       A'' (2)
   54    38           1.1731781483          31.9238003904     A'        A'  (1)
   55   121           1.1897296725          32.3741902620     A''       A'' (2)
   56    39           1.2348141703          33.6010018151     A'        A'  (1)
   57    40           1.2925357015          35.1716845309     A'        A'  (1)
   58   122           1.3717230048          37.3264806026     A''       A'' (2)
   59    41           1.4383190875          39.1386521409     A'        A'  (1)
   60   123           1.4422548986          39.2457510063     A''       A'' (2)
   61   124           1.5263713705          41.5346765741     A''       A'' (2)
   62    42           1.5634435975          42.5434631554     A'        A'  (1)
   63    43           1.6268114083          44.2677889520     A'        A'  (1)
   64    44           1.6707589976          45.4636636536     A'        A'  (1)
   65    45           1.7319284481          47.1281690239     A'        A'  (1)
   66    46           1.8207404947          49.5448676726     A'        A'  (1)
   67   125           2.1779570990          59.2652256500     A''       A'' (2)
   68   126           2.2178243110          60.3500676405     A''       A'' (2)
   69    47           2.2511022830          61.2556072965     A'        A'  (1)
   70    48           2.2631465147          61.5833475006     A'        A'  (1)
   71    49           2.3102892796          62.8661673526     A'        A'  (1)
   72   127           2.3142662861          62.9743872012     A''       A'' (2)
   73    50           2.3335252473          63.4984501771     A'        A'  (1)
   74    51           2.3804629829          64.7756908970     A'        A'  (1)
   75    52           2.4457708544          66.5528084280     A'        A'  (1)
   76   128           2.4465817841          66.5748749464     A''       A'' (2)
   77   129           2.4723856866          67.2770348316     A''       A'' (2)
   78   130           2.4809570734          67.5102741222     A''       A'' (2)
   79    53           2.5018574857          68.0790032552     A'        A'  (1)
   80   131           2.6432215642          71.9257153947     A''       A'' (2)
   81    54           2.6919982313          73.2529959833     A'        A'  (1)
   82    55           2.7767896230          75.5602870522     A'        A'  (1)
   83   132           2.8977946003          78.8529998820     A''       A'' (2)
   84    56           2.9030485388          78.9959668178     A'        A'  (1)
   85    57           2.9679439339          80.7618602940     A'        A'  (1)
   86   133           3.0634027990          83.3594280732     A''       A'' (2)
   87    58           3.0652922834          83.4108435578     A'        A'  (1)
   88   134           3.1216797883          84.9452255705     A''       A'' (2)
   89    59           3.1283400006          85.1264591632     A'        A'  (1)
   90    60           3.2175480619          87.5539339195     A'        A'  (1)
   91    61           3.2617306441          88.7562031046     A'        A'  (1)
   92   135           3.3587326628          91.3957622243     A''       A'' (2)
   93    62           3.4155211764          92.9410562409     A'        A'  (1)
   94    63           3.4630894196          94.2354539464     A'        A'  (1)
   95    64           3.7989339869         103.3742492283     A'        A'  (1)
   96   136           3.9288253407         106.9087726587     A''       A'' (2)
   97   137           4.0353665394         109.8079060622     A''       A'' (2)
   98    65           4.0538245316         110.3101735665     A'        A'  (1)
   99    66           4.0913567583         111.3314773765     A'        A'  (1)
  100   138           4.2570429183         115.8400269992     A''       A'' (2)
  101    67           4.4584273962         121.3199772402     A'        A'  (1)
  102    68           4.5420505509         123.5954789625     A'        A'  (1)
  103   139           4.5733147868         124.4462220724     A''       A'' (2)
  104    69           4.8002546879         130.6215707298     A'        A'  (1)
  105    70           5.1404494996         139.8787421831     A'        A'  (1)
  106    71           5.7452433312         156.3360190120     A'        A'  (1)
  107    72           6.1065868219         166.1686752763     A'        A'  (1)
  108   140           6.6132092187         179.9545715548     A''       A'' (2)
  109    73           6.6711255219         181.5305542848     A'        A'  (1)
  110   141           6.7310339368         183.1607451326     A''       A'' (2)
  111    74           6.7589239085         183.9196698453     A'        A'  (1)
  112   142           6.7912133614         184.7983105286     A''       A'' (2)
  113    75           6.9073144207         187.9575809658     A'        A'  (1)
  114   143           7.1326279368         194.0886734386     A''       A'' (2)
  115    76           7.1900073946         195.6500478636     A'        A'  (1)
  116   144           7.2165720092         196.3729077773     A''       A'' (2)
  117    77           7.4399598561         202.4516001248     A'        A'  (1)
  118    78           7.6302053425         207.6284429948     A'        A'  (1)
  119    79           7.8313031159         213.1005916077     A'        A'  (1)
  120   145          10.3544027919         281.7576242476     A''       A'' (2)
  121    80          10.3562897098         281.8089698958     A'        A'  (1)
  122   146          10.3927644035         282.8014967687     A''       A'' (2)
  123    81          10.4415104309         284.1279436104     A'        A'  (1)
  124    82          10.6153167180         288.8574531249     A'        A'  (1)
  125   147          12.6844956071         345.1626731992     A''       A'' (2)
  126    83          12.7356822777         346.5555333183     A'        A'  (1)
  127    84          13.2197358421         359.7273004454     A'        A'  (1)
  128    85          18.2736888934         497.2523546104     A'        A'  (1)
  129   148          26.0691849209         709.3785858073     A''       A'' (2)
  130    86          26.5316271771         721.9622793431     A'        A'  (1)
  131    87          26.9972269166         734.6318923647     A'        A'  (1)
  132    88          28.8239390291         784.3392560182     A'        A'  (1)
  133   149          36.9005326033        1004.1145403333     A''       A'' (2)
  134   150          36.9013432903        1004.1366002474     A''       A'' (2)
  135    89          36.9015100193        1004.1411371732     A'        A'  (1)
  136    90          36.9045820281        1004.2247307838     A'        A'  (1)
  137   151          36.9098284365        1004.3674928130     A''       A'' (2)
  138    91          36.9099872655        1004.3718147700     A'        A'  (1)
  139    92          36.9140205209        1004.4815652294     A'        A'  (1)
  140   152          43.8975716176        1194.5136516154     A''       A'' (2)
  141    93          43.9080357476        1194.7983950678     A'        A'  (1)
  142   153          43.9190246436        1195.0974181312     A''       A'' (2)
  143    94          44.0437180730        1198.4904988460     A'        A'  (1)
  144    95          44.0998546975        1200.0180540573     A'        A'  (1)
  145   154          46.4879227119        1265.0006883823     A''       A'' (2)
  146    96          46.4890242338        1265.0306623172     A'        A'  (1)
  147   155          46.5127789500        1265.6770610069     A''       A'' (2)
  148    97          46.5393113335        1266.3990438683     A'        A'  (1)
  149    98          46.6248650234        1268.7270781246     A'        A'  (1)
  150   156          55.0241810270        1497.2840861957     A''       A'' (2)
  151    99          55.0797103083        1498.7951147611     A'        A'  (1)
  152   100          55.6458459755        1514.2004494562     A'        A'  (1)
  153   101         103.8482626716        2825.8548909800     A'        A'  (1)
  154   157         138.2277512993        3761.3683371249     A''       A'' (2)
  155   102         138.5558179384        3770.2954842220     A'        A'  (1)
  156   103         138.8874069915        3779.3184810788     A'        A'  (1)
  157   104         149.5421234177        4069.2480547692     A'        A'  (1)


  VSCF finished.

 @CHECKOUT-I, Total execution time (CPU/WALL):       70.64/      13.48 seconds.
--executable xvscf finished with status     0 in       13.56 seconds (walltime).
 --invoking executable--
/home/asmola/.local/bin/xvtran
 @GETMEM-I,  Allocated    3814 MB of main memory.
  Full RHF integral transformation
  Transformation of IIII integrals :
  1 pass through the AO integral file was required.
    14228799 AO integrals were read.
    15933126 MO integrals were written to HF2.
  Transformation of IIJJ integrals :
  1 pass through the AO integral file was required.
     6942201 AO integrals were read.
     7813260 MO integrals were written to HF2.
  Transformation of IJIJ integrals :
  1 pass through the AO integral file was required.
    13438604 AO integrals were read.
    15193828 MO integrals were written to HF2.
  Summary of active molecular orbitals: 
------------------------------------------------------------------------
 
  Index      Eigenvalue    Symmetry    Index      Eigenvalue    Symmetry
------------------------------------------------------------------------
     1      -104.8850561        1        80         7.4399599        1
     2       -20.6569671        1        81         7.6302053        1
     3       -10.6050199        1        82         7.8313031        1
     4        -8.0717324        1        83        10.3562897        1
     5        -8.0694494        1        84        10.4415104        1
     6        -1.3707511        1        85        10.6153167        1
     7        -1.0391089        1        86        12.7356823        1
     8        -0.6545756        1        87        13.2197358        1
     9        -0.5941943        1        88        18.2736889        1
    10        -0.4528949        1        89        26.5316272        1
    11        -8.0692929        2        90        26.9972269        1
    12        -0.6059567        2        91        28.8239390        1
    13        -0.4364921        2        92        36.9015100        1
    14         0.0180171        1        93        36.9045820        1
    15         0.0621564        1        94        36.9099873        1
    16         0.1073395        1        95        36.9140205        1
    17         0.1277407        1        96        43.9080357        1
    18         0.1550853        1        97        44.0437181        1
    19         0.1677426        1        98        44.0998547        1
    20         0.1751718        1        99        46.4890242        1
    21         0.2270596        1       100        46.5393113        1
    22         0.2954000        1       101        46.6248650        1
    23         0.3290125        1       102        55.0797103        1
    24         0.3539122        1       103        55.6458460        1
    25         0.3907916        1       104       103.8482627        1
    26         0.4553460        1       105       138.5558179        1
    27         0.5066319        1       106       138.8874070        1
    28         0.5969049        1       107       149.5421234        1
    29         0.6717244        1       108         0.1170938        2
    30         0.6887900        1       109         0.1920913        2
    31         0.7415650        1       110         0.2535609        2
    32         0.7658236        1       111         0.3807441        2
    33         0.8435224        1       112         0.4234911        2
    34         0.8546129        1       113         0.6157661        2
    35         0.9039076        1       114         0.7336834        2
    36         0.9315621        1       115         0.7714504        2
    37         0.9556027        1       116         0.8651038        2
    38         1.0061273        1       117         0.9032067        2
    39         1.0194718        1       118         0.9301678        2
    40         1.1184965        1       119         0.9698593        2
    41         1.1731781        1       120         1.1297127        2
    42         1.2348142        1       121         1.1897297        2
    43         1.2925357        1       122         1.3717230        2
    44         1.4383191        1       123         1.4422549        2
    45         1.5634436        1       124         1.5263714        2
    46         1.6268114        1       125         2.1779571        2
    47         1.6707590        1       126         2.2178243        2
    48         1.7319284        1       127         2.3142663        2
    49         1.8207405        1       128         2.4465818        2
    50         2.2511023        1       129         2.4723857        2
    51         2.2631465        1       130         2.4809571        2
    52         2.3102893        1       131         2.6432216        2
    53         2.3335252        1       132         2.8977946        2
    54         2.3804630        1       133         3.0634028        2
    55         2.4457709        1       134         3.1216798        2
    56         2.5018575        1       135         3.3587327        2
    57         2.6919982        1       136         3.9288253        2
    58         2.7767896        1       137         4.0353665        2
    59         2.9030485        1       138         4.2570429        2
    60         2.9679439        1       139         4.5733148        2
    61         3.0652923        1       140         6.6132092        2
    62         3.1283400        1       141         6.7310339        2
    63         3.2175481        1       142         6.7912134        2
    64         3.2617306        1       143         7.1326279        2
    65         3.4155212        1       144         7.2165720        2
    66         3.4630894        1       145        10.3544028        2
    67         3.7989340        1       146        10.3927644        2
    68         4.0538245        1       147        12.6844956        2
    69         4.0913568        1       148        26.0691849        2
    70         4.4584274        1       149        36.9005326        2
    71         4.5420506        1       150        36.9013433        2
    72         4.8002547        1       151        36.9098284        2
    73         5.1404495        1       152        43.8975716        2
    74         5.7452433        1       153        43.9190246        2
    75         6.1065868        1       154        46.4879227        2
    76         6.6711255        1       155        46.5127789        2
    77         6.7589239        1       156        55.0241810        2
    78         6.9073144        1       157       138.2277513        2
    79         7.1900074        1
------------------------------------------------------------------------
  -104.885056132958       -20.6569670804740       -10.6050198719873     
  -8.07173239448440       -8.06944941422393       -1.37075105624675     
  -1.03910894233652      -0.654575624964866      -0.594194325745578     
 -0.452894940542418       -8.06929289696433      -0.605956695874006     
 -0.436492095365674       1.801705811968186E-002  6.215639926421321E-002
  0.107339529356239       0.127740692729608       0.155085267589288     
  0.167742630956245       0.175171838278089       0.227059646143024     
  0.295399950954106       0.329012458557634       0.353912194015363     
  0.390791603446136       0.455346017115810       0.506631854366234     
  0.596904871437648       0.671724368117404       0.688790000167436     
  0.741564983149618       0.765823552059815       0.843522372966378     
  0.854612898418301       0.903907601774528       0.931562097497281     
  0.955602711171382        1.00612730404412        1.01947175291933     
   1.11849645076659        1.17317814831986        1.23481417027297     
   1.29253570147220        1.43831908747899        1.56344359748315     
   1.62681140834528        1.67075899763369        1.73192844814579     
   1.82074049467728        2.25110228304193        2.26314651465379     
   2.31028927961667        2.33352524727290        2.38046298289447     
   2.44577085441358        2.50185748568887        2.69199823127338     
   2.77678962298444        2.90304853878848        2.96794393386018     
   3.06529228344246        3.12834000064712        3.21754806187161     
   3.26173064411800        3.41552117636718        3.46308941964236     
   3.79893398688117        4.05382453163128        4.09135675830944     
   4.45842739624335        4.54205055089346        4.80025468789075     
   5.14044949964059        5.74524333121615        6.10658682190841     
   6.67112552185790        6.75892390848869        6.90731442069265     
   7.19000739461140        7.43995985609573        7.63020534247561     
   7.83130311587558        10.3562897098349        10.4415104309019     
   10.6153167179638        12.7356822776712        13.2197358420755     
   18.2736888933903        26.5316271771426        26.9972269166098     
   28.8239390290668        36.9015100192648        36.9045820281140     
   36.9099872654763        36.9140205208887        43.9080357475599     
   44.0437180730037        44.0998546974752        46.4890242337783     
   46.5393113335160        46.6248650233858        55.0797103083391     
   55.6458459754829        103.848262671570        138.555817938386     
   138.887406991547        149.542123417701       0.117093751318052     
  0.192091283072028       0.253560937959056       0.380744053233682     
  0.423491119877910       0.615766144150023       0.733683352084384     
  0.771450414428960       0.865103827797396       0.903206748299447     
  0.930167809385324       0.969859334103774        1.12971272692539     
   1.18972967254397        1.37172300481472        1.44225489860042     
   1.52637137052457        2.17795709901318        2.21782431100211     
   2.31426628611733        2.44658178409091        2.47238568663235     
   2.48095707336322        2.64322156420539        2.89779460025673     
   3.06340279903523        3.12167978826339        3.35873266275406     
   3.92882534074560        4.03536653936580        4.25704291826786     
   4.57331478679796        6.61320921871149        6.73103393679581     
   6.79121336141227        7.13262793682870        7.21657200924629     
   10.3544027918712        10.3927644034695        12.6844956070555     
   26.0691849208693        36.9005326033263        36.9013432903029     
   36.9098284364694        43.8975716175972        43.9190246436054     
   46.4879227118725        46.5127789499644        55.0241810269641     
   138.227751299293     
 @CHECKOUT-I, Total execution time (CPU/WALL):       33.73/      19.09 seconds.
--executable xvtran finished with status     0 in       19.17 seconds (walltime).
 --invoking executable--
/home/asmola/.local/bin/xintprc
 @GETMEM-I,  Allocated    3814 MB of main memory.
  Processing integrals for CCSD calculation.
  @GMOIAA-I, Processing MO integrals for spin case AA.
  @GMOIAA-I, Generation of integral list completed.
                      TYPE                NUMBER
                      ----               --------
                      PPPP              27524020
                      PPPH               9932000
                      PPHH                900748
                      PHPH                491140
                      PHHH                 89950
                      HHHH                  2356

                     TOTAL              38940214

  @FORMT2-I, Second-order MP correlation energies:
            ------------------------------------------------
            E(SCF)                  =   -534.869815352268 a.u.
            E2(AA)                  =     -0.109109364438 a.u.
            E2(AB)                  =     -0.640638359987 a.u.
            E2(TOT)                 =     -0.858857088863 a.u.
            Total MP2 energy        =   -535.728672441130 a.u.
            ------------------------------------------------
   Largest T2 amplitudes for spin case AB:
       _       _                 _       _                 _       _
   i   j   a   b             i   j   a   b             i   j   a   b
-----------------------------------------------------------------------------
[  9   9  19  19]-0.02574 [  9   9  19  15] 0.02061 [  9   9  15  19] 0.02061
[  8   8  24  24]-0.01891 [  9   9  15  15]-0.01880 [ 13  13 112 112]-0.01767
[  9   9  19  18] 0.01712 [  9   9  18  19] 0.01712 [ 10  10  26  26]-0.01581
[ 13  13 113 113]-0.01537 [  9   9  18  15]-0.01488 [  9   9  15  18]-0.01488
[ 10  10 117 117]-0.01482 [  9   9  18  18]-0.01433 [  8   8  24  17] 0.01392
-----------------------------------------------------------------------------
   Norm of T2AB vector (  1799624 symmetry allowed elements):  0.3402380412.
-----------------------------------------------------------------------------
 @CHECKOUT-I, Total execution time (CPU/WALL):        6.33/       7.71 seconds.
--executable xintprc finished with status     0 in        7.84 seconds (walltime).
  calling xvcc 
 --invoking executable--
/home/asmola/.local/bin/xvcc
 @GETMEM-I,  Allocated    3814 MB of main memory.
   CCSD energy will be calculated.
   The total correlation energy is -0.858857088863 a.u.
   The total correlation energy is -0.854464145997 a.u.
  Convergence information after     1 iterations: 
  Largest element of residual vector : -0.13581743E-01.
  Largest element of DIIS residual   : -0.13581743E-01.
   The total correlation energy is -0.871252170213 a.u.
  Convergence information after     2 iterations: 
  Largest element of residual vector : -0.36300090E-02.
  Largest element of DIIS residual   : -0.31446926E-02.
   The total correlation energy is -0.870726087792 a.u.
  Convergence information after     3 iterations: 
  Largest element of residual vector : -0.24213569E-02.
  Largest element of DIIS residual   :  0.16397829E-02.
   The total correlation energy is -0.872503499968 a.u.
  Convergence information after     4 iterations: 
  Largest element of residual vector :  0.50744047E-03.
  Largest element of DIIS residual   :  0.47545080E-03.
   The total correlation energy is -0.872729001840 a.u.
  Convergence information after     5 iterations: 
  Largest element of residual vector :  0.58827915E-03.
  Largest element of DIIS residual   :  0.39926481E-03.
   The total correlation energy is -0.872741286815 a.u.
  Convergence information after     6 iterations: 
  Largest element of residual vector :  0.23330499E-03.
  Largest element of DIIS residual   : -0.15928081E-03.
   The total correlation energy is -0.872746288164 a.u.
  Convergence information after     7 iterations: 
  Largest element of residual vector : -0.14484770E-03.
  Largest element of DIIS residual   : -0.90687245E-04.
   The total correlation energy is -0.872746727691 a.u.
  Convergence information after     8 iterations: 
  Largest element of residual vector : -0.63999716E-04.
  Largest element of DIIS residual   :  0.38888805E-04.
   The total correlation energy is -0.872746478427 a.u.
  Convergence information after     9 iterations: 
  Largest element of residual vector : -0.31365172E-04.
  Largest element of DIIS residual   : -0.17073803E-04.
   The total correlation energy is -0.872748031361 a.u.
  Convergence information after    10 iterations: 
  Largest element of residual vector : -0.14506004E-04.
  Largest element of DIIS residual   :  0.76000764E-05.
   The total correlation energy is -0.872748416437 a.u.
  Convergence information after    11 iterations: 
  Largest element of residual vector :  0.47554040E-05.
  Largest element of DIIS residual   : -0.32383674E-05.
   The total correlation energy is -0.872748784947 a.u.
  Convergence information after    12 iterations: 
  Largest element of residual vector : -0.28020546E-05.
  Largest element of DIIS residual   : -0.15392168E-05.
   The total correlation energy is -0.872748955003 a.u.
  Convergence information after    13 iterations: 
  Largest element of residual vector : -0.83113890E-06.
  Largest element of DIIS residual   : -0.59269938E-06.
   The total correlation energy is -0.872749006120 a.u.
  Convergence information after    14 iterations: 
  Largest element of residual vector : -0.62793970E-06.
  Largest element of DIIS residual   : -0.40775397E-06.
   The total correlation energy is -0.872749022603 a.u.
  Convergence information after    15 iterations: 
  Largest element of residual vector : -0.29574335E-06.
  Largest element of DIIS residual   : -0.18161807E-06.
   The total correlation energy is -0.872749029609 a.u.
  Convergence information after    16 iterations: 
  Largest element of residual vector : -0.17393316E-06.
  Largest element of DIIS residual   : -0.90374596E-07.
   The total correlation energy is -0.872749031541 a.u.
  Convergence information after    17 iterations: 
  Largest element of residual vector : -0.85712103E-07.
  Largest element of DIIS residual   : -0.41122563E-07.
   The total correlation energy is -0.872749032585 a.u.
  Convergence information after    18 iterations: 
  Largest element of residual vector : -0.27046922E-07.
  Largest element of DIIS residual   :  0.22575314E-07.
   The total correlation energy is -0.872749032897 a.u.
  Convergence information after    19 iterations: 
  Largest element of residual vector : -0.18451891E-07.
  Largest element of DIIS residual   : -0.10015896E-07.
   The total correlation energy is -0.872749033316 a.u.
  Convergence information after    20 iterations: 
  Largest element of residual vector :  0.72772734E-08.
  Largest element of DIIS residual   :  0.58563834E-08.
   The total correlation energy is -0.872749033456 a.u.
  Convergence information after    21 iterations: 
  Largest element of residual vector : -0.39926645E-08.
  Largest element of DIIS residual   : -0.22854124E-08.
   The total correlation energy is -0.872749033571 a.u.
  Convergence information after    22 iterations: 
  Largest element of residual vector :  0.18292080E-08.
  Largest element of DIIS residual   :  0.12997452E-08.
   The total correlation energy is -0.872749033586 a.u.
  Convergence information after    23 iterations: 
  Largest element of residual vector : -0.98480184E-09.
  Largest element of DIIS residual   :  0.40273615E-09.
   The total correlation energy is -0.872749033596 a.u.
  Convergence information after    24 iterations: 
  Largest element of residual vector : -0.41197337E-09.
  Largest element of DIIS residual   : -0.26091635E-09.
   The total correlation energy is -0.872749033597 a.u.
  Convergence information after    25 iterations: 
  Largest element of residual vector : -0.16350937E-09.
  Largest element of DIIS residual   : -0.11638006E-09.
   The total correlation energy is -0.872749033597 a.u.
  Convergence information after    26 iterations: 
  Largest element of residual vector : -0.10042190E-09.
  Largest element of DIIS residual   : -0.57072048E-10.
   The total correlation energy is -0.872749033600 a.u.
  Convergence information after    27 iterations: 
  Largest element of residual vector : -0.34813801E-10.
  Largest element of DIIS residual   :  0.28423494E-10.
  Amplitude equations converged in    27iterations.
   The total correlation energy is -0.872749033600 a.u.
[...]
 term  0.463144612972520     
 final tnorm  0.830365267339568     
  norm contr. I: |<0|L dT/dx|0>|^2   0.000000000000000E+000
  norm contr. II: <0|[nabla(1+L)e-T][nabla e^T]|0>  0.463144612972520     
  total norm contribution  0.463144612972520     
 oo  2.191916427605750E-003
 vv  -1.55722886954848     
 vo -2.755968507058656E-002
  Correlated perturbed 1-el contribution to DBOC  -1.58259663819146       cm**-1
  SUM_I |dc_I/dx|^2 contribution to DBOC  0.797526830531935       cm**-1
 
 
  The total diagonal Born-Oppenheimer correction (DBOC) is:      0.0087233747 a.u.
  The total diagonal Born-Oppenheimer correction (DBOC) is:       1914.559451 cm-1
 
 Total CC energy including DBOC  -535.733841011149     
 First-order density matrix is being calculated  (Symmetry block 2, perturbation   3)
 Calculation of the contributions of <pq||rs> to dI(i,j)/dx required   3.8 seconds.
 Calculation of the contributions of <pq||rs> to dI(a,b)/dx required   9.7 seconds.
 Calculation of the contributions of <pq||rs> to dI(i,a)/dx required   6.0 seconds.
 First-order Z-vector equations are solved for 1 perturbation.
 Convergence reached after  23 iterations.
        U*G(pq,rs) contribution is being calculated
             (Symmetry block 2, perturbation   3)

 CCSD contribution to force constants 

        0.0000000000        0.0000000000        0.0000000000
        0.0000000000        0.0000000000        0.0000000000
        0.0000000000        0.0000000000        0.0000000000
        0.0000000000        0.0000000000        0.0000000000
        0.0000000000        0.0000000000        0.0000000000
        0.0000000000        0.0000000000        0.0000000000
        0.0000000000        0.0000000000        0.0000000000
        0.0000000000        0.0000000000        0.0000000000
        0.0000000000        0.0000000000        0.0000000000
        0.0000000000        0.0000000000        0.0000000000
        0.0000000000        0.0000000000        0.0000000000
        0.0000000000        0.0000000000        0.0000000000
        0.0000000000        0.0000000000        0.0000000000
        0.0000000000        0.0000000000        0.0000000000
        0.0000000000        0.0000000000        0.0000000000
        0.0000000000        0.0000000000        0.0000000000
        0.0000000000        0.0000000000        0.0000000000
        0.0000000000        0.0000000000        0.0000000000
        0.0000000000        0.0000000000        0.0000000000
        0.0000000000        0.0000000000        0.0000000000
        0.0000000000        0.0000000000        0.0000000000
        0.0000000000        0.0000000000        0.0000000000
        0.0000000000        0.0000000000        0.0000000000
        0.0000000000        0.0000000000        0.0000000000
        0.0000000000        0.0000000000        0.0000000000
        0.0000000000        0.0000000000        0.0000000000
        0.0951293041       -0.0285665718       -0.0665627322

 CCSD contribution to dipole derivatives 

        0.0000000000        0.0000000000        0.0000000000
        0.0000000000        0.0000000000        0.0000000000
        0.0000000000        0.0000000000        0.0000000000
        0.0000000000        0.0000000000        0.0000000000
        0.0000000000        0.0000000000        0.0000000000
        0.0000000000        0.0000000000        0.0000000000
        0.0000000000        0.0000000000        0.0000000000
        0.0000000000        0.0000000000        0.0000000000
        0.0000000000        0.0000000000        0.0146726807
 @CHECKOUT-I, Total execution time (CPU/WALL):      899.39/     240.62 seconds.
--executable xsdcc finished with status     0 in      240.77 seconds (walltime).
 --invoking executable--
/home/asmola/.local/bin/xanti
 @GETMEM-I,  Allocated    3814 MB of main memory.
 CCSD MO derivative gammas will be sorted to Mulliken order.
 @CHECKOUT-I, Total execution time (CPU/WALL):        6.53/       5.06 seconds.
--executable xanti finished with status     0 in        5.19 seconds (walltime).
 --invoking executable--
/home/asmola/.local/bin/xbcktrn
 @GETMEM-I,  Allocated    3814 MB of main memory.
 CCSD MO derivative gammas will be transformed to the AO basis.
 @CHECKOUT-I, Total execution time (CPU/WALL):       10.94/       2.59 seconds.
--executable xbcktrn finished with status     0 in        2.64 seconds (walltime).
 --invoking executable--
/home/asmola/.local/bin/xvdint
 @GETMEM-I,  Allocated    3814 MB of main memory.
 One- and two-electron integral derivatives are calculated
 for RHF-CC/MBPT hessians and dipole derivatives.
 Spherical gaussians are used.
  magnet F F
 Evaluation of 2el integral derivatives

                      Two-electron integral gradient
                      ------------------------------

                         O #1 x     0.0000000000
                         O #1 y     0.0000000000
                         H #2 x     0.0000000000
                         H #2 y     0.0000000000
                         CL#3 x     0.0000000000
                         CL#3 y     0.0000000000


 O #1       0.0000000000            0.0000000000           -0.0905455081
 H #2       0.0000000000            0.0000000000            0.0063625587
 CL#3       0.0000000000            0.0000000000            0.0841829494


 Evaluation of 2e integral derivatives required  119.81 seconds.
  contribution to Hessian
        0.0000000000        0.0000000000        0.0000000000
        0.0000000000        0.0000000000        0.0000000000
       -0.0905455081        0.0063625587        0.0841829494
 @CHECKOUT-I, Total execution time (CPU/WALL):      119.97/      20.82 seconds.
--executable xvdint finished with status     0 in       20.92 seconds (walltime).
 --invoking executable--
/home/asmola/.local/bin/xanti
 @GETMEM-I,  Allocated    3814 MB of main memory.
 CCSD MO gammas will be sorted to Mulliken order.
 @CHECKOUT-I, Total execution time (CPU/WALL):        8.44/      13.28 seconds.
--executable xanti finished with status     0 in       13.38 seconds (walltime).
 --invoking executable--
/home/asmola/.local/bin/xbcktrn
 @GETMEM-I,  Allocated    3814 MB of main memory.
 CCSD MO gammas will be transformed to the AO basis.
 @CHECKOUT-I, Total execution time (CPU/WALL):       17.68/       3.23 seconds.
--executable xbcktrn finished with status     0 in        3.31 seconds (walltime).
 --invoking executable--
/home/asmola/.local/bin/xvdint
 @GETMEM-I,  Allocated    3814 MB of main memory.
 One- and two-electron integral derivatives are calculated
 for RHF-CC/MBPT hessians and dipole derivatives.
 Spherical gaussians are used.
  magnet F F

                     Kinetic energy integral gradient
                     --------------------------------

                         O #1 x     0.1972873720
                         O #1 y    -0.2486451930
                         H #2 x     0.1372653026
                         H #2 y     0.2593513467
                         CL#3 x    -0.3345526745
                         CL#3 y    -0.0107061537


 O #1       0.1972873720           -0.2486451930            0.0000000000
 H #2       0.1372653026            0.2593513467            0.0000000000
 CL#3      -0.3345526745           -0.0107061537            0.0000000000



                   Nuclear attraction integral gradient
                   ------------------------------------

                         O #1 x   -24.3456014004
                         O #1 y     4.9861573073
                         H #2 x    -3.2596936991
                         H #2 y    -4.6684789147
                         CL#3 x    27.6052950996
                         CL#3 y    -0.3176783927


 O #1     -24.3456014004            4.9861573073            0.0000000000
 H #2      -3.2596936991           -4.6684789147            0.0000000000
 CL#3      27.6052950996           -0.3176783927            0.0000000000



                      Reorthonormalization gradient
                      -----------------------------

                         O #1 x     0.0000000000
                         O #1 y     0.0000000000
                         H #2 x     0.0000000000
                         H #2 y     0.0000000000
                         CL#3 x     0.0000000000
                         CL#3 y     0.0000000000


 O #1       0.0000000000            0.0000000000            0.0000000000
 H #2       0.0000000000            0.0000000000            0.0000000000
 CL#3       0.0000000000            0.0000000000            0.0000000000



                     Kinetic energy integral Hessian
                     -------------------------------


           Symmetry 1

           O #1 x      O #1 y      H #2 x      H #2 y      CL#3 x      CL#3 y

 O #1 x    0.261478
 O #1 y    0.198142    0.013073
 H #2 x    0.105078   -0.203471   -0.108002
 H #2 y   -0.203471   -0.225746    0.208748    0.230566
 CL#3 x   -0.366556    0.005329    0.002924   -0.005278    0.363632
 CL#3 y    0.005329    0.212673   -0.005278   -0.004820   -0.000052   -0.207852


           Symmetry 2

           O #1 z      H #2 z      CL#3 z

 O #1 z   -0.423329
 H #2 z    0.217552   -0.218185
 CL#3 z    0.205777    0.000633   -0.206409




           O #1 x      O #1 y      O #1 z      H #2 x      H #2 y      H #2 z

 O #1 x    0.261478
 O #1 y    0.198142    0.013073
 O #1 z    0.000000    0.000000   -0.423329

 H #2 x    0.105078   -0.203471    0.000000   -0.108002
 H #2 y   -0.203471   -0.225746    0.000000    0.208748    0.230566
 H #2 z    0.000000    0.000000    0.217552    0.000000    0.000000   -0.218185

 CL#3 x   -0.366556    0.005329    0.000000    0.002924   -0.005278    0.000000
 CL#3 y    0.005329    0.212673    0.000000   -0.005278   -0.004820    0.000000
 CL#3 z    0.000000    0.000000    0.205777    0.000000    0.000000    0.000633


           CL#3 x      CL#3 y      CL#3 z

 CL#3 x    0.363632
 CL#3 y   -0.000052   -0.207852
 CL#3 z    0.000000    0.000000   -0.206409




                   Nuclear attraction integral Hessian
                   -----------------------------------


           Symmetry 1

           O #1 x      O #1 y      H #2 x      H #2 y      CL#3 x      CL#3 y

 O #1 x  -11.898186
 O #1 y   -0.741923    9.092151
 H #2 x   -2.262693    2.026188    1.906253
 H #2 y    2.019459    1.087306   -2.648973   -1.287797
 CL#3 x   14.160879   -1.284265    0.356440    0.629514  -14.517319
 CL#3 y   -1.277536  -10.179457    0.622785    0.200491    0.654752    9.978966


           Symmetry 2

           O #1 z      H #2 z      CL#3 z

 O #1 z   13.022266
 H #2 z   -3.349313    3.650458
 CL#3 z   -9.672953   -0.301145    9.974099




           O #1 x      O #1 y      O #1 z      H #2 x      H #2 y      H #2 z

 O #1 x  -11.898186
 O #1 y   -0.741923    9.092151
 O #1 z    0.000000    0.000000   13.022266

 H #2 x   -2.262693    2.026188    0.000000    1.906253
 H #2 y    2.019459    1.087306    0.000000   -2.648973   -1.287797
 H #2 z    0.000000    0.000000   -3.349313    0.000000    0.000000    3.650458

 CL#3 x   14.160879   -1.284265    0.000000    0.356440    0.629514    0.000000
 CL#3 y   -1.277536  -10.179457    0.000000    0.622785    0.200491    0.000000
 CL#3 z    0.000000    0.000000   -9.672953    0.000000    0.000000   -0.301145


           CL#3 x      CL#3 y      CL#3 z

 CL#3 x  -14.517319
 CL#3 y    0.654752    9.978966
 CL#3 z    0.000000    0.000000    9.974099




                Highest order reorthonormalization Hessian
                ------------------------------------------


           Symmetry 1

           O #1 x      O #1 y      H #2 x      H #2 y      CL#3 x      CL#3 y

 O #1 x    0.000000
 O #1 y    0.000000    0.000000
 H #2 x    0.000000    0.000000    0.000000
 H #2 y    0.000000    0.000000    0.000000    0.000000
 CL#3 x    0.000000    0.000000    0.000000    0.000000    0.000000
 CL#3 y    0.000000    0.000000    0.000000    0.000000    0.000000    0.000000


           Symmetry 2

           O #1 z      H #2 z      CL#3 z

 O #1 z    0.000000
 H #2 z    0.000000    0.000000
 CL#3 z    0.000000    0.000000    0.000000




           O #1 x      O #1 y      O #1 z      H #2 x      H #2 y      H #2 z


           CL#3 x      CL#3 y      CL#3 z




                Electronic contributions to dipole moment
                -----------------------------------------

                               au             Debye

                    x      1.74185014      4.42734221
                    y      0.35637855      0.90582407

  Conversion factor used: 1 a.u. =   2.54174691 Debye 



   Electronic contributions to static part of dipole moment derivatives
   --------------------------------------------------------------------


                     Total dipole moment derivatives
                     -------------------------------


           Symmetry 1
                              Ex             Ey

               O #1 x    -8.83762586    -0.07997163
               O #1 y    -0.29703981    -8.82129482
               H #2 x    -0.38123301     0.10267721
               H #2 y     0.36281697    -0.32849564
               CL#3 x   -16.78114112    -0.02270558
               CL#3 y    -0.06577716   -16.85020954

           Symmetry 2
                              Ez

               O #1 z    -8.44588380
               H #2 z    -0.68021518
               CL#3 z   -16.87390102



                       Ex          Ey          Ez

      O #1    x   -8.837626   -0.079972    0.000000
      O #1    y   -0.297040   -8.821295    0.000000
      O #1    z    0.000000    0.000000   -8.445884

      H #2    x   -0.381233    0.102677    0.000000
      H #2    y    0.362817   -0.328496    0.000000
      H #2    z    0.000000    0.000000   -0.680215

      CL#3    x  -16.781141   -0.022706    0.000000
      CL#3    y   -0.065777  -16.850210    0.000000
      CL#3    z    0.000000    0.000000  -16.873901

 Evaluation of 1e integral derivatives required    1.58 seconds.
 Evaluation of 2el integral derivatives

                      Two-electron integral gradient
                      ------------------------------

                         O #1 x    11.1958341807
                         O #1 y    -2.3800878883
                         H #2 x     1.7391534217
                         H #2 y     2.4031844062
                         CL#3 x   -12.9349876025
                         CL#3 y    -0.0230965179


 O #1      11.1958341807           -2.3800878883            0.0000000000
 H #2       1.7391534217            2.4031844062            0.0000000000
 CL#3     -12.9349876025           -0.0230965179            0.0000000000


 Evaluation of 2e integral derivatives required  300.87 seconds.

                            Molecular gradient
                            ------------------

                         O #1 x    -0.0233800301
                         O #1 y     0.2598679198
                         H #2 x    -0.1344045761
                         H #2 y    -0.2754533836
                         CL#3 x     0.1577846061
                         CL#3 y     0.0155854638


 O #1      -0.0233800301            0.2598679198            0.0000000000
 H #2      -0.1344045761           -0.2754533836            0.0000000000
 CL#3       0.1577846061            0.0155854638            0.0000000000


  Molecular gradient norm 0.433E+00

                            Molecular hessian
                            -----------------


           Symmetry 1

           O #1 x      O #1 y      H #2 x      H #2 y      CL#3 x      CL#3 y

 O #1 x    2.112965
 O #1 y    1.578276    6.095593
 H #2 x   -0.330090   -2.527302    0.555643
 H #2 y   -1.869010   -6.395604    1.996530    6.304016
 CL#3 x   -1.782874    0.488302   -0.128380    0.023650    1.911254
 CL#3 y    0.290734    0.300011   -0.039167    0.060885   -0.251567   -0.360896


           Symmetry 2

           O #1 z      H #2 z      CL#3 z

 O #1 z   -0.258130
 H #2 z    0.336140   -0.310073
 CL#3 z   -0.078010   -0.031287    0.109297




           O #1 x      O #1 y      O #1 z      H #2 x      H #2 y      H #2 z

 O #1 x    2.112965
 O #1 y    1.578276    6.095593
 O #1 z    0.000000    0.000000   -0.258130

 H #2 x   -0.330090   -2.527302    0.000000    0.555643
 H #2 y   -1.869010   -6.395604    0.000000    1.996530    6.304016
 H #2 z    0.000000    0.000000    0.336140    0.000000    0.000000   -0.310073

 CL#3 x   -1.782874    0.488302    0.000000   -0.128380    0.023650    0.000000
 CL#3 y    0.290734    0.300011    0.000000   -0.039167    0.060885    0.000000
 CL#3 z    0.000000    0.000000   -0.078010    0.000000    0.000000   -0.031287


           CL#3 x      CL#3 y      CL#3 z

 CL#3 x    1.911254
 CL#3 y   -0.251567   -0.360896
 CL#3 z    0.000000    0.000000    0.109297




                           Total dipole moment
                           -------------------

                               au             Debye

                    x     -0.23129200     -0.58788573
                    y     -0.65485021     -1.66446349

  Conversion factor used: 1 a.u. =   2.54174691 Debye 



                     Total dipole moment derivatives
                     -------------------------------


           Symmetry 1
                              Ex             Ey

               O #1 x    -0.31951151     0.00048164
               O #1 y    -0.00360620    -0.08106317
               H #2 x     0.19940925    -0.04414345
               H #2 y    -0.04637510     0.09981448
               CL#3 x     0.12010244     0.04366192
               CL#3 y     0.04998120    -0.01875136

           Symmetry 2
                              Ez

               O #1 z    -0.29667477
               H #2 z     0.29437256
               CL#3 z     0.00230234



                       Ex          Ey          Ez

      O #1    x   -0.319512    0.000482    0.000000
      O #1    y   -0.003606   -0.081063    0.000000
      O #1    z    0.000000    0.000000   -0.296675

      H #2    x    0.199409   -0.044143    0.000000
      H #2    y   -0.046375    0.099814    0.000000
      H #2    z    0.000000    0.000000    0.294373

      CL#3    x    0.120102    0.043662    0.000000
      CL#3    y    0.049981   -0.018751    0.000000
      CL#3    z    0.000000    0.000000    0.002302

  Molecular gradient does not satisfy rotational invariance condition.
   rotational invariance in yz-plane :        0.0000E+00
   rotational invariance in xz-plane :        0.0000E+00
   rotational invariance in xy-plane :        -.4356E-02
 @CHECKOUT-I, Total execution time (CPU/WALL):      302.55/      44.02 seconds.
--executable xvdint finished with status     0 in       44.12 seconds (walltime).
 --invoking executable--
/home/asmola/.local/bin/xjoda
  @GTFLGS-I, Hessian will be transformed to curvilinear coordinates.
  @GTFLGS-I, Hessian will be transformed to curvilinear coordinates.
  igrd and ihes are                      0                     1
  gradient from JOBARC 
  -0.023380030066357   0.259867919836654   0.000000000000000
  -0.134404576066937  -0.275453383608166   0.000000000000000
   0.157784606133287   0.015585463771516   0.000000000000000
 
  @PROJFCM-I, Projecting force constant matrix onto totally symmetric subspace.
  Largest difference between matrix elements of symmetrized
  and unsymmetrized FCM :     0.0000000000E+00.
 
  Summary of diagonal Born-Oppenheimer correction at the correlated level
  The total diagonal Born-Oppenheimer correction (DBOC) is:      0.0087233747 a.u.
  The total diagonal Born-Oppenheimer correction (DBOC) is:       1914.559451 cm-1
  The total diagonal Born-Oppenheimer correction (DBOC) is:            22.903 kJ/mole
  hellooooooo 
  readis is  F
 
 @CHECKOUT-I, Total execution time (CPU/WALL):        0.01/       0.06 seconds.
--executable xjoda finished with status     0 in        0.10 seconds (walltime).
  The final electronic energy is      -535.733841011149480 a.u. 
  This computation required                         2886.67 seconds (walltime).
