 --invoking executable--
/home/asmola/.local/bin/xjoda


   *************************************************************************
         <<<     CCCCCC     CCCCCC   |||     CCCCCC     CCCCCC   >>>
       <<<      CCC        CCC       |||    CCC        CCC         >>>
      <<<      CCC        CCC        |||   CCC        CCC            >>>
    <<<        CCC        CCC        |||   CCC        CCC              >>>
      <<<      CCC        CCC        |||   CCC        CCC            >>>
       <<<      CCC        CCC       |||    CCC        CCC         >>>
         <<<     CCCCCC     CCCCCC   |||     CCCCCC     CCCCCC   >>>
   *************************************************************************

     ****************************************************************
     * CFOUR Coupled-Cluster techniques for Computational Chemistry *
     ****************************************************************
 

   Department of Chemistry                Institut fuer Physikalische Chemie
   University of Florida                  Universitaet Mainz
   Gainesville, FL 32611, USA             D-55099 Mainz, Germany

   Department of Chemistry                Fakultaet fuer Chemie und Biowiss.
   Johns Hopkins University               Karlsruher Institut fuer Technologie
   Baltimore, MD 21218, USA               D-76131 Karlsruhe, Germany

   Department of Chemistry                Department of Physical Chemistry
   Southern Methodist University          Eotvos Lorand University
   Dallas, TX 75275, USA                  H-1053 Budapest, Hungary

 
                       Version 2.1
 
                     vincent.theory.phys.ucl.ac.uk                     
                     Fri 31 Jan 08:09:58 GMT 2025                      
                     integer*8 version is running
 
********************************************************************************
*                          Input from ZMAT file                                *
********************************************************************************
Hypochlorous acid DBOC calculation                                              
O                                                                               
H 1 ROH                                                                         
CL 1 ROCL 2 A                                                                   
                                                                                
ROH=2.000000000000001                                                           
ROCL=1.683                                                                      
A=107.0                                                                         
                                                                                
                                                                                
*CFOUR(CALC=CCSD,BASIS=AUG-PCVTZ,SCF_CONV=10                                    
CC_CONV=10,DBOC=ON,MEMORY=500000000)                                            
                                                                                
%isotopes                                                                       
16                                                                              
1                                                                               
37                                                                              
********************************************************************************
  @GTFLGS-I, Hessian will be transformed to curvilinear coordinates.
    -------------------------------------------------------------------
                    CFOUR Control Parameters 
    -------------------------------------------------------------------
        External           Internal           Value            Units
          Name               Name
    -------------------------------------------------------------------
       ABCDTYPE             IABCDT         STANDARD    [  0]    ***   
       ANHARMONIC           IANHAR         OFF         [  0]    ***   
       ANH_ALGORIT          IANALG         STANDARD    [  0]    ***   
       ANH_DERIVAT          IANDER         SECOND      [  1]    ***   
       ANH_MODE             ANHMOD         VIBRATION   [  0]    ***   
       ANH_STEPSIZ          ICUBST             50000          x 10-6  
       ANH_SYMMETR          IANHSM         ABELIAN     [  0]    ***   
       AO_LADDERS           IAOLAD         SINGLEPASS  [  1]    ***   
       AV_SCF               IAVSCF         OFF         [  0]    ***   
       BASIS                IBASIS         AUG-PCVTZ   [ 51]    ***   
       BOTHVECTORS          BOTHVC         OFF         [  0]    ***   
       BOX_POTENT           IPIAB          OFF         [  0]    ***   
       BREIT                IBREIT         OFF         [  0]    ***   
       BRUCK_CONV           IBRTOL          10D-  4             ***   
       BRUECKNER            IBRKNR         OFF         [  0]    ***   
       BUFFERSIZE           IBUFFS              4096            ***   
       CACHE_RECS           ICHREC             10               ***   
       CALCLEVEL            ICLLVL         CCSD        [ 10]    ***   
       CCORBOPT             ICCORB         OFF         [  0]  x 0.01  
       CC_CONV              ICCCNV          10D- 10             ***   
       CC_EXPORDER          ICCEOR              5               ***   
       CC_EXTRAPOL          ICCEXT         DIIS        [  1]    ***   
       CC_GUESS             ICCGES         MP2         [  0]    ***   
       CC_MAXCYC            ICCCYC            100              cycles 
       CC_PROGRAM           ICCPRO         VCC         [  0]    ***   
       CHARGE               ICHRGE              0               ***   
       CHOLESKY             ICHOLE         OFF         [  0]    ***   
       CIS_CONV             ICISTL              5               ***   
       COMM_SIZE            IPSIZE            ***               ***   
       CONSTANT             ICONST         OLD         [  1]    ***   
       CONTINUUM            ICONTU         NONE        [  0]    ***   
       CONTRACTION          ICNTYP         GENERAL     [  1]    ***   
       COORDINATES          ICOORD         INTERNAL    [  0]    ***   
       CPHF_CONVER          ICPHFT          10D- 16             ***   
       CPHF_MAXCYC          ICPHFC             64              cycles 
       CUBIC                ICUBIC         OFF         [  0]    ***   
       CURVILINEAR          ICURVY         ON          [  1]    ***   
       DBOC                 IDBOC          ON          [  1]    ***   
       DCT                  IDCT           OFF         [  0]    ***   
       DERIV_LEV            IDRLVL         SECOND      [  2]    ***   
       DEVMEM_SIZE          IDVMEM          50000000           MByte  
       DIAG_MRCC            IEOMST          10D-  0             ***   
       DIFF_TYPE            IDIFTY         RELAXED     [  0]    ***   
       DIRECT               IDIRCT         OFF         [  0]    ***   
       DROPMO               IDRPMO      NONE         
       ECP                  IECP           OFF         [  0]    ***   
       EIGENVECTOR          IVEC                1               ***   
       EL_ANHARM            IELANH         OFF         [  0]    ***   
       EOMFOLLOW            IEOMSR         ENERGY      [  0]    ***   
       EOMIP                IEOMIP         OFF         [  0]    ***   
       EOMLEVEL             HBARFM         SAME        [  0]    ***   
       EOM_MRCC             IMRCCE         NEW         [  1]    ***   
       EOM_NONIT            EOMNON         OFF         [  0]    ***   
       EOM_NSING            IEOMSI          10D-  0             ***   
       EOM_NSTATES          IMRCCD         DAVIDSON    [  0]    ***   
       EOM_NTRIP            IEOMTR          10D-  0             ***   
       EOM_ORDER            IEXORD         ENERGY      [  0]    ***   
       EOM_PROPSTA          IEOMST              0               ***   
       ESTATE_CONV          IEXTOL          10D-  5             ***   
       ESTATE_DIAG          IEXDIG         ITERATIVE   [  0]    ***   
       ESTATE_LOCK          IESLOC         ON          [  1]    ***   
       ESTATE_MAXC          IEXMXC             40               ***   
       ESTATE_PROP          IEXPRP         OFF         [  0]    ***   
       EVAL_HESS            IRECAL              0            # of cyc.
       EXCITATION           IEXCIT              0               ***   
       EXCITE               IEXCIT         NONE        [  0]    ***   
       EXTERN_POT           IEXPOT         OFF         [  0]    ***   
       FCGRADNEW            IFCGNW         OFF         [  0]    ***   
       FC_FIELD             IFINFC              0             x 10-6  
       FD_CALTYPE           IFDCAL         GRADONLY    [  0]    ***   
       FD_PROJECT           IFDPRJ         OFF         [  1]    ***   
       FD_STEPSIZE          IDISFD              0            10-4 bohr
       FD_USEGROUP          IFDGRP         FULL        [  0]    ***   
       FILE_RECSIZ          IFLREC              4096           words  
       FINITE_PERT          IFIPER              0             x 10-6  
       FIXGEOM              IFIXGM         OFF         [  0]    ***   
       FOCK                 IFOCK          AO          [  1]    ***   
       FREQ_ALGORI          IVIALG         STANDARD    [  0]    ***   
       FROZEN_CORE          IFROCO         OFF         [  0]    ***   
       GAMMA_ABCD           IGABCD         STORE       [  0]    ***   
       GAMMA_ABCI           IGABCI         STORE       [  0]    ***   
       GENBAS_1             IGNBS1              0               ***   
       GENBAS_2             IGNBS2              0               ***   
       GENBAS_3             IGNBS3              0               ***   
       GENBAS_4             IGNBS4              0               ***   
       GEO_CONV             ICONTL              5              H/bohr 
       GEO_MAXCYC           IOPTCY             50               ***   
       GEO_MAXSTEP          IMXSTP            300            millibohr
       GEO_METHOD           INR            SINGLE_POINT[  5]    ***   
       GIAO                 IGIAO          OFF         [  1]    ***   
       GIMIC                IGIMIC         OFF         [  0]    ***   
       GRID                 IGRID          OFF         [  0]    ***   
       GRID_ALGO            IGALGO         SERIAL      [  0]    ***   
       GUESS                IGUESS         MOREAD      [  0]    ***   
       HBAR                 IHBAR          OFF         [  0]    ***   
       HESS_TYPE            IHESTP         SCF         [  0]    ***   
       HF2_FILE             IHF2Fl         USE         [  1]    ***   
       HFSTABILITY          ISTABL         OFF         [  0]    ***   
       INCORE               INCORE         OFF         [  0]    ***   
       INPUT_MRCC           IMRCC          ON          [  1]    ***   
       INTEGRALS            INTTYP         VMOL        [  1]    ***   
       JODA_PRINT           IJPRNT              0               ***   
       KEYWORD_OUT          IDMPKW         NO          [  0]    ***   
       LINDEP_TOL           ILINDP              8               ***   
       LINEQ_CONV           IZTACN          10D-  7           cycles  
       LINEQ_EXPOR          ILMAXD              5               ***   
       LINEQ_MAXCY          ILMAXC            100               ***   
       LINEQ_TYPE           ILTYPE         DIIS        [  1]    ***   
       LOCK_ORBOCC          ILOCOC         OFF         [  0]    ***   
       MEMORY_SIZE          IMEMSZ         500000000           words  
       MEM_UNIT             IMEMU          INTEGERWORDS[  0]    ***   
       MRCC                 IMRCCC         OFF         [  0]    ***   
       MULTIPLICTY          IMULTP              1               ***   
       NACOUPLING           IVCOUP         OFF         [  0]    ***   
       NEGEVAL              IDIE           ABORT       [  0]    ***   
       NEWNORM              INEWNO         OFF         [  0]    ***   
       NON-HF               INONHF         OFF         [  0]    ***   
       NTOP_TAMP            ITOPT2             15               ***   
       NUC_MODEL            INUCMO         POINT       [  0]    ***   
       OCCUPATION           IOCCU   ESTIMATED BY SCF 
       OPEN-SHELL           IOPEN          SPIN-ORBITAL[  0]    ***   
       OPTVIB               IOPTVB         OFF         [  0]    ***   
       ORBITALS             IORBTP         STANDARD    [  0]    ***   
       PARALLEL             IPARAL         ON          [  1]    ***   
       PARA_INT             IPINTS         ON          [  1]    ***   
       PARA_PRINT           IPPRIN              0               ***   
       PERT_ORB             IPTORB         STANDARD    [  0]    ***   
       POINTS               IGRDFD              0               ***   
       PRINT                IPRNT               0               ***   
       PROPS                IPROPS         OFF         [  0]    ***   
       PROP_INTEGR          IINTYP         INTERNAL    [  0]    ***   
       PSI                  IPSI           OFF         [  0]    ***   
       QC_ALG               IQCALG         FLM         [  0]    ***   
       QC_LINALG            IQCLIN         TRIDIAG     [  2]    ***   
       QC_MAXCYC            IQCMAX          10D-100           cycles  
       QC_MAXSCFCY          IQCMSC          10D- 15           cycles  
       QC_RTRUST            IQCRTR          10D-  0           x 10-3  
       QC_SKIPSCF           IQCSKI         OFF         [  0]    ***   
       QC_START             IQCSTA          10D-  1             ***   
       QRHFGUESS            IQGUES         OFF         [  0]    ***   
       QUARTIC              IQUART         OFF         [  0]    ***   
       RAMAN_INT            IRAMIN         OFF         [  0]    ***   
       RAMAN_ORB            IRAMRE         UNRELAXED   [  0]    ***   
       RDO                  IRDOFM         ON          [  1]    ***   
       REDUCE_REPR          REDREP         Ir          [  0]    ***   
       REFERENCE            IREFNC         RHF         [  0]    ***   
       RELATIVIST           IRELAT         OFF         [  0]    ***   
       RELAX_DENS           IRDENS         ON          [  1]    ***   
       RESET_FLAGS          IRESET         OFF         [  0]    ***   
       RESTART_CC           ICCRES         OFF         [  0]    ***   
       ROT_EVEC             ROTVEC              0               ***   
       SAVE_INTS            ISVINT         OFF         [  0]    ***   
       SCALE_ON             ISTCRT              0               ***   
       SCF_CONV             ISCFCV          10D- 10             ***   
       SCF_DAMPING          IDAMP               0             x 10-3  
       SCF_EXPORDE          IRPPOR              6               ***   
       SCF_EXPSTAR          IRPPLS              8               ***   
       SCF_EXTRAPO          IRPP           ON          [  1]    ***   
       SCF_MAXCYC           ISCFCY            150              cycles 
       SCF_NOSTOP           ISCFST         OFF         [  0]    ***   
       SCF_PRINT            ISCFPR              0               ***   
       SCF_PROG             ISCFPR         SCF         [  0]    ***   
       SD_FIELD             IFINSD              0             x 10-6  
       SOPERT               IPERSO         OFF         [  0]    ***   
       SPHERICAL            IDFGHI         ON          [  1]    ***   
       SPINORBIT            ISOCAL         OFF         [  0]    ***   
       SPINROTATIO          ISRCON         OFF         [  0]    ***   
       SPIN_FLIP            ISPFLP         OFF         [  0]    ***   
       SPIN_ORBIT           ISPORB         OFF         [  0]    ***   
       SPIN_SCAL            ISCSMP         OFF         [  0]    ***   
       STEEPSCALE           ISTPSC              1000          x 10-3  
       SUBGROUP             ISUBGP         DEFAULT     [  0]    ***   
       SUBGRPAXIS           ISBXYZ         X           [  0]    ***   
       SYMMETRY             ISYM           ON          [  0]    ***   
       SYM_CHECK            ISYMCK         OVERRIDE    [  1]    ***   
       T3_EXTRAPOL          IT3EXT         OFF         [  0]    ***   
       T4_EXTRAPOL          IT4EXP         OFF         [  0]    ***   
       TAMP_SUM             IEVERY              5               ***   
       TESTSUITE            ITESTS         OFF         [  0]    ***   
       THERMOCH             ITHERM         OFF         [  0]    ***   
       TOL_CHOLESK          ITOLCH          10D-  4             ***   
       TRANGRAD             IRESRM         OFF         [  0]    ***   
       TRANS_INV            ITRAIN         IGNORE      [  1]    ***   
       TREAT_PERT           ITREAT         SIMULTANEOUS[  0]    ***   
       TRIP_ALGORI          ITRALG         NORMAL      [  0]    ***   
       UIJ_THRESHO          IUIJTH              1               ***   
       UNITS                IUNITS         ANGSTROM    [  0]    ***   
       UNOS                 IUNOS          OFF         [  0]    ***   
       UPDATE_HESS          IHUPDT         ON          [  1]    ***   
       VIBPHASE             ISETPH         STANDARD    [  0]    ***   
       VIBRATION            IVIB           ANALYTIC    [  1]    ***   
       VIB_ALGORIT          IGEALG         STANDARD    [  0]    ***   
       VNATORB              IVNORB         OFF         [  0]    ***   
       VTRAN                IVTRAN         FULL/PARTIAL[  0]    ***   
       XFIELD               IXEFLD              0             x 10-6  
       XFORM_TOL            IXFTOL          10D- 11             ***   
       YFIELD               IYEFLD              0             x 10-6  
       ZFIELD               IZEFLD              0             x 10-6  
       ZSCALE_EXP           IZEXPS         OFF         [  0]    ***   
    -------------------------------------------------------------------
   3 entries found in Z-matrix 
   Job Title : Hypochlorous acid DBOC calculation                                              
   There are  3 unique internal coordinates.
   Of these,  0 will be optimized.
   User supplied Z-matrix: 
--------------------------------------------------------------------------------
       SYMBOL    BOND      LENGTH    ANGLE     ANGLE     DIHED     ANGLE
                  TO      (ANGST)    WRT      (DEG)      WRT      (DEG)
--------------------------------------------------------------------------------
        O    
        H          1         ROH  
        CL         1         ROCL       2        A    
                  *Initial values for internal coordinates* 
                      Name             Value
                        ROH             2.0000000000
                        ROCL            1.6830000000
                        A             107.0000000000
--------------------------------------------------------------------------------
  read isotopes from ZMAT file 
   Rotational constants (in cm-1): 
          0.4401236438             0.4811417292             5.1626459163
   Rotational constants (in MHz): 
      13194.5767477481         14424.2681840641        154772.2525863210
********************************************************************************
   The full molecular point group is C s .
   The largest Abelian subgroup of the full molecular point group is C s .
   The computational point group is C s .
********************************************************************************
--------------------------------------------------------------------------------
   Analysis of internal coordinates specified by Z-matrix 
--------------------------------------------------------------------------------
   *The nuclear repulsion energy is   47.910922156757891 a.u.
   *There are   3 degrees of freedom within the tot. symm. molecular subspace.
   *Z-matrix requests optimization of   0 coordinates.
   *The optimization is constrained.
   *The following   3 parameters can have non-zero 
    derivatives within the totally symmetric subspace:
             A    [ 3]  ROH  [ 1]  ROCL [ 2]
   *The following   0 parameters are to be optimized:

   *The following coordinates must be varied in an  unconstrained optimization.
             A    [ 3]  ROH  [ 1]  ROCL [ 2]
--------------------------------------------------------------------------------


 ----------------------------------------------------------------
         Coordinates used in calculation (QCOMP) 
 ----------------------------------------------------------------
 Z-matrix   Atomic            Coordinates (in bohr)
  Symbol    Number           X              Y              Z
 ----------------------------------------------------------------
     O         8        -2.13867632     0.29441847     0.00000000
     H         1        -3.61826102    -3.18338176     0.00000000
     CL       17         1.02403882    -0.04060246     0.00000000
 ----------------------------------------------------------------
 
   Interatomic distance matrix (Angstroms) 
 
                 O             H             CL   
                [ 1]        [ 2]        [ 3]
  O    [ 1]     0.00000
  H    [ 2]     2.00000     0.00000
  CL   [ 3]     1.68300     2.96660     0.00000
 rotcon2
   Rotational constants (in cm-1): 
          5.1626459163             0.4811417292             0.4401236438
   Rotational constants (in MHz): 
     154772.2525863213         14424.2681840641         13194.5767477481
  ECPDATA file not present.   Using default ECPDATA. 
  @GTFLGS-I, Hessian will be transformed to curvilinear coordinates.
  There are  157 basis functions.
 @CHECKOUT-I, Total execution time (CPU/WALL):        0.18/       0.24 seconds.
--executable xjoda finished with status     0 in        0.28 seconds (walltime).
 --invoking executable--
/home/asmola/.local/bin/xvmol
 SERIAL VERSION OF MOLECULE STARTED
********************************************************************************
                    INPUT FROM MOL FILE
********************************************************************************
INTGRL        1    0    1    0    0    0    0    0    0                         
         *** CFOUR Program System (Release V0.1) ***                            
Hypochlorous acid DBOC calculation                                              
    3    1 Z          0.10E-08              0    0                              
   9999.00      3.00                                                            
          8.00000000    1    4    1    1    1    1                              
O #1  -2.138676322145434   0.294418468149949   0.000000000000000                
   13    7                                                                      
   15330.0000000000       5.080000000000000E-004 -1.150000000000000E-004        
  0.000000000000000E+000  0.000000000000000E+000  0.000000000000000E+000        
  0.000000000000000E+000  0.000000000000000E+000                                
   2299.00000000000       3.929000000000000E-003 -8.950000000000000E-004        
  0.000000000000000E+000  0.000000000000000E+000  0.000000000000000E+000        
  0.000000000000000E+000  0.000000000000000E+000                                
   522.400000000000       2.024300000000000E-002 -4.636000000000000E-003        
  0.000000000000000E+000  0.000000000000000E+000  0.000000000000000E+000        
  0.000000000000000E+000  0.000000000000000E+000                                
   147.300000000000       7.918100000000000E-002 -1.872400000000000E-002        
  0.000000000000000E+000  0.000000000000000E+000  0.000000000000000E+000        
  0.000000000000000E+000  0.000000000000000E+000                                
   47.5500000000000       0.230687000000000      -5.846300000000000E-002        
  0.000000000000000E+000  0.000000000000000E+000  0.000000000000000E+000        
  0.000000000000000E+000  0.000000000000000E+000                                
   16.7600000000000       0.433118000000000      -0.136463000000000             
  0.000000000000000E+000  0.000000000000000E+000  0.000000000000000E+000        
  0.000000000000000E+000  0.000000000000000E+000                                
   6.20700000000000       0.350260000000000      -0.175740000000000             
  0.000000000000000E+000  0.000000000000000E+000  0.000000000000000E+000        
  0.000000000000000E+000  0.000000000000000E+000                                
   1.75200000000000       4.272800000000000E-002  0.160934000000000             
   1.00000000000000       0.000000000000000E+000  0.000000000000000E+000        
  0.000000000000000E+000  0.000000000000000E+000                                
  0.688200000000000      -8.154000000000000E-003  0.603418000000000             
  0.000000000000000E+000  0.000000000000000E+000  0.000000000000000E+000        
  0.000000000000000E+000  0.000000000000000E+000                                
  0.238400000000000       2.381000000000000E-003  0.378765000000000             
  0.000000000000000E+000   1.00000000000000       0.000000000000000E+000        
  0.000000000000000E+000  0.000000000000000E+000                                
   7.84500000000000       0.000000000000000E+000  0.000000000000000E+000        
  0.000000000000000E+000  0.000000000000000E+000   1.00000000000000             
  0.000000000000000E+000  0.000000000000000E+000                                
   21.0320000000000       0.000000000000000E+000  0.000000000000000E+000        
  0.000000000000000E+000  0.000000000000000E+000  0.000000000000000E+000        
   1.00000000000000       0.000000000000000E+000                                
  7.376000000000001E-002  0.000000000000000E+000  0.000000000000000E+000        
  0.000000000000000E+000  0.000000000000000E+000  0.000000000000000E+000        
  0.000000000000000E+000   1.00000000000000                                     
    8    6                                                                      
   34.4600000000000       1.592800000000000E-002  0.000000000000000E+000        
  0.000000000000000E+000  0.000000000000000E+000  0.000000000000000E+000        
  0.000000000000000E+000                                                        
   7.74900000000000       9.974000000000000E-002  0.000000000000000E+000        
  0.000000000000000E+000  0.000000000000000E+000  0.000000000000000E+000        
  0.000000000000000E+000                                                        
   2.28000000000000       0.310492000000000       0.000000000000000E+000        
  0.000000000000000E+000  0.000000000000000E+000  0.000000000000000E+000        
  0.000000000000000E+000                                                        
  0.715600000000000       0.491026000000000        1.00000000000000             
  0.000000000000000E+000  0.000000000000000E+000  0.000000000000000E+000        
  0.000000000000000E+000                                                        
  0.214000000000000       0.336337000000000       0.000000000000000E+000        
   1.00000000000000       0.000000000000000E+000  0.000000000000000E+000        
  0.000000000000000E+000                                                        
   15.1590000000000       0.000000000000000E+000  0.000000000000000E+000        
  0.000000000000000E+000   1.00000000000000       0.000000000000000E+000        
  0.000000000000000E+000                                                        
   57.4370000000000       0.000000000000000E+000  0.000000000000000E+000        
  0.000000000000000E+000  0.000000000000000E+000   1.00000000000000             
  0.000000000000000E+000                                                        
  5.974000000000000E-002  0.000000000000000E+000  0.000000000000000E+000        
  0.000000000000000E+000  0.000000000000000E+000  0.000000000000000E+000        
   1.00000000000000                                                             
    4    4                                                                      
   2.31400000000000        1.00000000000000       0.000000000000000E+000        
  0.000000000000000E+000  0.000000000000000E+000                                
  0.645000000000000       0.000000000000000E+000   1.00000000000000             
  0.000000000000000E+000  0.000000000000000E+000                                
   15.8580000000000       0.000000000000000E+000  0.000000000000000E+000        
   1.00000000000000       0.000000000000000E+000                                
  0.214000000000000       0.000000000000000E+000  0.000000000000000E+000        
  0.000000000000000E+000   1.00000000000000                                     
    2    2                                                                      
   1.42800000000000        1.00000000000000       0.000000000000000E+000        
  0.500000000000000       0.000000000000000E+000   1.00000000000000             
          1.00000000    1    3    1    1    1                                   
H #2  -3.618261016269676  -3.183381759662456   0.000000000000000                
    6    4                                                                      
   33.8700000000000       6.068000000000000E-003  0.000000000000000E+000        
  0.000000000000000E+000  0.000000000000000E+000                                
   5.09500000000000       4.530800000000000E-002  0.000000000000000E+000        
  0.000000000000000E+000  0.000000000000000E+000                                
   1.15900000000000       0.202822000000000       0.000000000000000E+000        
  0.000000000000000E+000  0.000000000000000E+000                                
  0.325800000000000       0.503903000000000        1.00000000000000             
  0.000000000000000E+000  0.000000000000000E+000                                
  0.102700000000000       0.383421000000000       0.000000000000000E+000        
   1.00000000000000       0.000000000000000E+000                                
  2.526000000000000E-002  0.000000000000000E+000  0.000000000000000E+000        
  0.000000000000000E+000   1.00000000000000                                     
    3    3                                                                      
   1.40700000000000        1.00000000000000       0.000000000000000E+000        
  0.000000000000000E+000                                                        
  0.388000000000000       0.000000000000000E+000   1.00000000000000             
  0.000000000000000E+000                                                        
  0.102000000000000       0.000000000000000E+000  0.000000000000000E+000        
   1.00000000000000                                                             
    2    2                                                                      
   1.05700000000000        1.00000000000000       0.000000000000000E+000        
  0.247000000000000       0.000000000000000E+000   1.00000000000000             
         17.00000000    1    4    1    1    1    1                              
CL#3   1.024038818107986  -0.040602455880289   0.000000000000000                
   18    8                                                                      
   456100.000000000       4.930000000000000E-005 -1.380000000000000E-005        
  4.200000000000000E-006  0.000000000000000E+000  0.000000000000000E+000        
  0.000000000000000E+000  0.000000000000000E+000  0.000000000000000E+000        
   68330.0000000000       3.830000000000000E-004 -1.073000000000000E-004        
  3.240000000000000E-005  0.000000000000000E+000  0.000000000000000E+000        
  0.000000000000000E+000  0.000000000000000E+000  0.000000000000000E+000        
   15550.0000000000       2.008500000000000E-003 -5.651000000000000E-004        
  1.711000000000000E-004  0.000000000000000E+000  0.000000000000000E+000        
  0.000000000000000E+000  0.000000000000000E+000  0.000000000000000E+000        
   4405.00000000000       8.385600000000000E-003 -2.361400000000000E-003        
  7.142000000000000E-004  0.000000000000000E+000  0.000000000000000E+000        
  0.000000000000000E+000  0.000000000000000E+000  0.000000000000000E+000        
   1439.00000000000       2.947030000000000E-002 -8.458900000000000E-003        
  2.567000000000000E-003  0.000000000000000E+000  0.000000000000000E+000        
  0.000000000000000E+000  0.000000000000000E+000  0.000000000000000E+000        
   520.400000000000       8.783249999999999E-002 -2.596380000000000E-002        
  7.885500000000000E-003  0.000000000000000E+000  0.000000000000000E+000        
  0.000000000000000E+000  0.000000000000000E+000  0.000000000000000E+000        
   203.100000000000       0.211473000000000      -6.863619999999999E-002        
  2.108670000000000E-002  0.000000000000000E+000  0.000000000000000E+000        
  0.000000000000000E+000  0.000000000000000E+000  0.000000000000000E+000        
   83.9600000000000       0.365364000000000      -0.141874000000000             
  4.422640000000000E-002  0.000000000000000E+000  0.000000000000000E+000        
  0.000000000000000E+000  0.000000000000000E+000  0.000000000000000E+000        
   36.2000000000000       0.340884000000000      -0.199319000000000             
  6.516700000000000E-002  0.000000000000000E+000  0.000000000000000E+000        
  0.000000000000000E+000  0.000000000000000E+000  0.000000000000000E+000        
   15.8300000000000       0.102133000000000      -1.956620000000000E-002        
  6.030100000000000E-003  0.000000000000000E+000  0.000000000000000E+000        
  0.000000000000000E+000  0.000000000000000E+000  0.000000000000000E+000        
   6.33400000000000       3.116800000000000E-003  0.499741000000000             
 -0.206495000000000       0.000000000000000E+000  0.000000000000000E+000        
  0.000000000000000E+000  0.000000000000000E+000  0.000000000000000E+000        
   2.69400000000000       1.057500000000000E-003  0.563736000000000             
 -0.405871000000000       0.000000000000000E+000  0.000000000000000E+000        
  0.000000000000000E+000  0.000000000000000E+000  0.000000000000000E+000        
  0.976800000000000      -3.780000000000000E-004  7.903250000000001E-002        
  7.595580000000000E-002   1.00000000000000       0.000000000000000E+000        
  0.000000000000000E+000  0.000000000000000E+000  0.000000000000000E+000        
  0.431300000000000       1.561000000000000E-004 -8.350900000000000E-003        
  0.725661000000000       0.000000000000000E+000  0.000000000000000E+000        
  0.000000000000000E+000  0.000000000000000E+000  0.000000000000000E+000        
  0.162500000000000      -5.140000000000000E-005  2.324600000000000E-003        
  0.394423000000000       0.000000000000000E+000   1.00000000000000             
  0.000000000000000E+000  0.000000000000000E+000  0.000000000000000E+000        
   15.0640000000000       0.000000000000000E+000  0.000000000000000E+000        
  0.000000000000000E+000  0.000000000000000E+000  0.000000000000000E+000        
   1.00000000000000       0.000000000000000E+000  0.000000000000000E+000        
   2.87400000000000       0.000000000000000E+000  0.000000000000000E+000        
  0.000000000000000E+000  0.000000000000000E+000  0.000000000000000E+000        
  0.000000000000000E+000   1.00000000000000       0.000000000000000E+000        
  5.910000000000000E-002  0.000000000000000E+000  0.000000000000000E+000        
  0.000000000000000E+000  0.000000000000000E+000  0.000000000000000E+000        
  0.000000000000000E+000  0.000000000000000E+000   1.00000000000000             
   12    7                                                                      
   663.300000000000       2.404500000000000E-003 -6.521000000000000E-004        
  0.000000000000000E+000  0.000000000000000E+000  0.000000000000000E+000        
  0.000000000000000E+000  0.000000000000000E+000                                
   156.800000000000       1.921480000000000E-002 -5.194500000000000E-003        
  0.000000000000000E+000  0.000000000000000E+000  0.000000000000000E+000        
  0.000000000000000E+000  0.000000000000000E+000                                
   49.9800000000000       8.850970000000000E-002 -2.469380000000000E-002        
  0.000000000000000E+000  0.000000000000000E+000  0.000000000000000E+000        
  0.000000000000000E+000  0.000000000000000E+000                                
   18.4200000000000       0.256020000000000      -7.281670000000000E-002        
  0.000000000000000E+000  0.000000000000000E+000  0.000000000000000E+000        
  0.000000000000000E+000  0.000000000000000E+000                                
   7.24000000000000       0.436927000000000      -0.134030000000000             
  0.000000000000000E+000  0.000000000000000E+000  0.000000000000000E+000        
  0.000000000000000E+000  0.000000000000000E+000                                
   2.92200000000000       0.350334000000000      -9.477420000000000E-002        
  0.000000000000000E+000  0.000000000000000E+000  0.000000000000000E+000        
  0.000000000000000E+000  0.000000000000000E+000                                
   1.02200000000000       5.854950000000000E-002  0.262289000000000             
   1.00000000000000       0.000000000000000E+000  0.000000000000000E+000        
  0.000000000000000E+000  0.000000000000000E+000                                
  0.381800000000000      -4.584200000000000E-003  0.564667000000000             
  0.000000000000000E+000  0.000000000000000E+000  0.000000000000000E+000        
  0.000000000000000E+000  0.000000000000000E+000                                
  0.130100000000000       2.269700000000000E-003  0.341250000000000             
  0.000000000000000E+000   1.00000000000000       0.000000000000000E+000        
  0.000000000000000E+000  0.000000000000000E+000                                
   9.48000000000000       0.000000000000000E+000  0.000000000000000E+000        
  0.000000000000000E+000  0.000000000000000E+000   1.00000000000000             
  0.000000000000000E+000  0.000000000000000E+000                                
   3.66800000000000       0.000000000000000E+000  0.000000000000000E+000        
  0.000000000000000E+000  0.000000000000000E+000  0.000000000000000E+000        
   1.00000000000000       0.000000000000000E+000                                
  4.190000000000000E-002  0.000000000000000E+000  0.000000000000000E+000        
  0.000000000000000E+000  0.000000000000000E+000  0.000000000000000E+000        
  0.000000000000000E+000   1.00000000000000                                     
    5    5                                                                      
   1.04600000000000        1.00000000000000       0.000000000000000E+000        
  0.000000000000000E+000  0.000000000000000E+000  0.000000000000000E+000        
  0.344000000000000       0.000000000000000E+000   1.00000000000000             
  0.000000000000000E+000  0.000000000000000E+000  0.000000000000000E+000        
   17.9570000000000       0.000000000000000E+000  0.000000000000000E+000        
   1.00000000000000       0.000000000000000E+000  0.000000000000000E+000        
   5.76000000000000       0.000000000000000E+000  0.000000000000000E+000        
  0.000000000000000E+000   1.00000000000000       0.000000000000000E+000        
  0.135000000000000       0.000000000000000E+000  0.000000000000000E+000        
  0.000000000000000E+000  0.000000000000000E+000   1.00000000000000             
    3    3                                                                      
  0.706000000000000        1.00000000000000       0.000000000000000E+000        
  0.000000000000000E+000                                                        
   11.7790000000000       0.000000000000000E+000   1.00000000000000             
  0.000000000000000E+000                                                        
  0.312000000000000       0.000000000000000E+000  0.000000000000000E+000        
   1.00000000000000                                                             
FINISH                                                                          
 
********************************************************************************
 ONE- AND TWO-ELECTRON INTEGRALS OVER SYMMETRY-ADAPTED AOS ARE CALCULATED.

  SPHERICAL HARMONICS ARE USED.
  
  INTEGRALS LESS THAN  0.10E-13 ARE NEGLECTED.

  NUCLEAR REPULSION ENERGY :   47.9109221568 A.U.
  @MOLECU-I, ONE ELECTRON INTEGRALS (CPU/WALL):        0.04/       0.05 SECONDS.
  @TWOEL-I,   13973599 INTEGRALS OF SYMMETRY TYPE  I I I I
  @TWOEL-I,   13096575 INTEGRALS OF SYMMETRY TYPE  I J I J
  @TWOEL-I,    6788015 INTEGRALS OF SYMMETRY TYPE  I I J J
  @TWOEL-I, TOTAL NUMBER OF 2-E INTEGRALS   33858189.
  @MOLECU-I, TWO ELECTRON INTEGRALS (CPU/WALL):       52.89/       8.68 SECONDS.
 @CHECKOUT-I, Total execution time (CPU/WALL):       52.94/       8.75 seconds.

Running with 14 threads/proc

--executable xvmol finished with status     0 in        8.80 seconds (walltime).
 --invoking executable--
/home/asmola/.local/bin/xvmol2ja
 @GETMEM-I,  Allocated    3814 MB of main memory.
 @CHECKOUT-I, Total execution time (CPU/WALL):        0.08/       0.02 seconds.
--executable xvmol2ja finished with status     0 in        0.06 seconds (walltime).
 --invoking executable--
/home/asmola/.local/bin/xvscf
  There are  157 functions in the AO basis.

  There are 2 irreducible representations.

       Irrep        # of functions
         1                104
         2                 53


  Parameters for SCF calculation: 
        SCF reference function:  RHF  
  Maximum number of iterations:  150
     Full symmetry point group: C s 
     Computational point group: C s 
        Initial density matrix: MOREAD                 
     SCF convergence tolerance: 10**(-10)
  DIIS convergence acceleration:  ON
          Latest start for DIIS:   8
                     DIIS order:   6

  Memory information:    1209746 words required.
  Fock matrices are constructed from AO integral file.
 @GETMEM-I,  Allocated       9 MB of main memory.
  Initialization and symmetry analysis required      0.001 seconds.

  @INITGES-I, Occupancies from core Hamiltonian:

          Alpha population by irrep:  10    3
           Beta population by irrep:  10    3


 total no. of electrons in initial guess :  0.000000000000000E+000
  --------------------------------------------------------------------
  Iteration         Total Energy            Largest Density Difference
  --------------------------------------------------------------------
       0            47.910922156757898              0.0000000000D+00
   current occupation vector 
    10  3
    10  3
       1          -366.620719948351166              0.1324935275D+02
   current occupation vector 
    10  3
    10  3
       2          -344.397762761790943              0.1320685984D+02
   current occupation vector 
    10  3
    10  3
       3          -422.576788621237313              0.1065749212D+02
   current occupation vector 
    10  3
    10  3
       4          -341.296441898460444              0.1066870478D+02
   current occupation vector 
    10  3
    10  3
       5          -422.314344748704343              0.1060766778D+02
   current occupation vector 
    10  3
    10  3
       6          -341.200489906459779              0.1060802736D+02
   current occupation vector 
    10  3
    10  3
       7          -422.305916054500472              0.1060596332D+02
   current occupation vector 
    10  3
    10  3
       8          -341.197592301879808              0.1060597348D+02
   current occupation vector 
    10  3
    10  3
       9          -445.138971114548895              0.8445375081D+01
   current occupation vector 
    10  3
    10  3
      10          -460.558476576755709              0.1683388675D+01
   current occupation vector 
    10  3
    10  3
      11          -463.614032488560383              0.3445013061D+00
   current occupation vector 
    10  3
    10  3
      12          -463.723679557912931              0.7663244915D-01
   current occupation vector 
    10  3
    10  3
      13          -468.259889631577948              0.5084777304D+00
   current occupation vector 
    10  3
    10  3
      14          -467.494975185098724              0.7543086926D-01
   current occupation vector 
    10  3
    10  3
      15          -396.671319744437653              0.7439232868D+01
   current occupation vector 
    10  3
    10  3
      16          -485.864656521837333              0.7439268643D+01
   current occupation vector 
    10  3
    10  3
      17          -521.367199790484847              0.2097711972D+01
   current occupation vector 
    10  3
    10  3
      18          -528.795729769193485              0.4777481673D+00
   current occupation vector 
    10  3
    10  3
      19          -534.006768015954663              0.9809469008D+00
   current occupation vector 
    10  3
    10  3
      20          -534.505312524147485              0.4673690934D+00
   current occupation vector 
    10  3
    10  3
      21          -534.657280096636441              0.4823697171D+00
   current occupation vector 
    10  3
    10  3
      22          -534.695660057977761              0.3187411173D+00
   current occupation vector 
    10  3
    10  3
      23          -534.700281723608327              0.6330634323D-01
   current occupation vector 
    10  3
    10  3
      24          -534.702765592667674              0.8328608392D-01
   current occupation vector 
    10  3
    10  3
      25          -534.703053118482217              0.2716045317D-01
   current occupation vector 
    10  3
    10  3
      26          -534.703080400759632              0.7920672691D-02
   current occupation vector 
    10  3
    10  3
      27          -534.703082105828571              0.1641307451D-02
   current occupation vector 
    10  3
    10  3
      28          -534.703082414369533              0.4698009674D-03
   current occupation vector 
    10  3
    10  3
      29          -534.703082478405122              0.3135558390D-03
   current occupation vector 
    10  3
    10  3
      30          -534.703082489252211              0.1481070109D-03
   current occupation vector 
    10  3
    10  3
      31          -534.703082490661131              0.4643725813D-04
   current occupation vector 
    10  3
    10  3
      32          -534.703082491005148              0.1904327820D-04
   current occupation vector 
    10  3
    10  3
      33          -534.703082491078590              0.1041458466D-04
   current occupation vector 
    10  3
    10  3
      34          -534.703082491099394              0.4907094163D-05
   current occupation vector 
    10  3
    10  3
      35          -534.703082491090640              0.2424412763D-05
   current occupation vector 
    10  3
    10  3
      36          -534.703082491093596              0.6910928145D-06
   current occupation vector 
    10  3
    10  3
      37          -534.703082491097348              0.5469167734D-06
   current occupation vector 
    10  3
    10  3
      38          -534.703082491090640              0.1032326020D-06
   current occupation vector 
    10  3
    10  3
      39          -534.703082491091095              0.8555776271D-07
   current occupation vector 
    10  3
    10  3
      40          -534.703082491092346              0.3930176451D-07
   current occupation vector 
    10  3
    10  3
      41          -534.703082491097462              0.1255365824D-07
   current occupation vector 
    10  3
    10  3
      42          -534.703082491098144              0.2711067301D-08
   current occupation vector 
    10  3
    10  3
      43          -534.703082491099849              0.1084754175D-08
   current occupation vector 
    10  3
    10  3
      44          -534.703082491097234              0.4727864975D-09
   current occupation vector 
    10  3
    10  3
      45          -534.703082491098712              0.2726659523D-09
   current occupation vector 
    10  3
    10  3
      46          -534.703082491099735              0.1326071475D-09
   current occupation vector 
    10  3
    10  3

  SCF has converged.

 Density matrix saved to file den.dat
 total electron number:   26.0000000000002     
     E(SCF)=      -534.703082491100076              0.2739919402D-10

  Eigenvector printing suppressed.

 @PUTMOS-I, Writing converged MOs to NEWMOS. 
 @PUTMOS-I, Symmetry   1 Full Blocks 26 Partial Blocksize   0
 @PUTMOS-I, Symmetry   2 Full Blocks 13 Partial Blocksize   1
 @PUTFOCK-I, Writing converged Fock matrix to NEWFOCK. 
 @PUTFOCK-I, Symmetry   1 Full Blocks 26 Partial Blocksize   0
 @PUTFOCK-I, Symmetry   2 Full Blocks 13 Partial Blocksize   1


 
  ORBITAL EIGENVALUES (ALPHA)  (1H = 27.2113834 eV)

       MO #        E(hartree)               E(eV)           FULLSYM    COMPSYM
       ----   --------------------   --------------------   -------   ---------
    1     1        -104.8877457883       -2854.1406646061     A'        A'  (1)
    2     2         -20.6737923450        -562.5624898315     A'        A'  (1)
    3     3         -10.6071141536        -288.6342500010     A'        A'  (1)
    4     4          -8.0736634892        -219.6955526463     A'        A'  (1)
    5     5          -8.0717115864        -219.6424386706     A'        A'  (1)
    6   105          -8.0714304721        -219.6347891614     A''       A'' (2)
    7     6          -1.3481292095         -36.6844607916     A'        A'  (1)
    8     7          -1.0263326256         -27.9279305701     A'        A'  (1)
    9   106          -0.6028603527         -16.4046641933     A''       A'' (2)
   10     8          -0.5927998040         -16.1309027454     A'        A'  (1)
   11     9          -0.5556747513         -15.1206787032     A'        A'  (1)
   12   107          -0.4356428255         -11.8544439491     A''       A'' (2)
   13    10          -0.4018351712         -10.9344909063     A'        A'  (1)
  +++++++++++++++++++++++++++++++++++++++++++++++++++++++++++++++++++++++++++++
   14    11          -0.0767331109          -2.0880140995     A'        A'  (1)
   15    12           0.0512658325           1.3950142233     A'        A'  (1)
   16    13           0.0772579605           2.1022959828     A'        A'  (1)
   17   108           0.1177095683           3.2030401940     A''       A'' (2)
   18    14           0.1178694742           3.2073914530     A'        A'  (1)
   19    15           0.1443583191           3.9281895685     A'        A'  (1)
   20    16           0.1627073919           4.4274932234     A'        A'  (1)
   21    17           0.1761302044           4.7927465198     A'        A'  (1)
   22   109           0.1891925465           5.1481909183     A''       A'' (2)
   23    18           0.2259581609           6.1486341482     A'        A'  (1)
   24   110           0.2419050871           6.5825720710     A''       A'' (2)
   25    19           0.2706643505           7.3651514132     A'        A'  (1)
   26    20           0.2988955574           8.1333616088     A'        A'  (1)
   27    21           0.3418010840           9.3008803420     A'        A'  (1)
   28   111           0.3646340243           9.9221962348     A''       A'' (2)
   29    22           0.3828236831          10.4171620152     A'        A'  (1)
   30   112           0.4254209035          11.5762913118     A''       A'' (2)
   31    23           0.4541162592          12.3571316385     A'        A'  (1)
   32    24           0.5087960138          13.8450434052     A'        A'  (1)
   33    25           0.5829418272          15.8626535608     A'        A'  (1)
   34   113           0.6189229840          16.8417506127     A''       A'' (2)
   35    26           0.6310837460          17.1726617703     A'        A'  (1)
   36    27           0.6619726985          18.0131928997     A'        A'  (1)
   37   114           0.7210931083          19.6219410372     A''       A'' (2)
   38    28           0.7439126562          20.2428925047     A'        A'  (1)
   39    29           0.7660416063          20.8450518489     A'        A'  (1)
   40   115           0.7797420629          21.2178602259     A''       A'' (2)
   41    30           0.7846100148          21.3503239329     A'        A'  (1)
   42   116           0.8041134279          21.8810387849     A''       A'' (2)
   43    31           0.8177169582          22.2512096625     A'        A'  (1)
   44   117           0.8786489560          23.9092536147     A''       A'' (2)
   45    32           0.9089413261          24.7335509139     A'        A'  (1)
   46   118           0.9331771958          25.3930424562     A''       A'' (2)
   47    33           0.9457632535          25.7355264972     A'        A'  (1)
   48   119           0.9775104778          26.5994123891     A''       A'' (2)
   49    34           0.9872124161          26.8634155520     A'        A'  (1)
   50    35           0.9980969331          27.1595983156     A'        A'  (1)
   51    36           1.0109914478          27.5104759000     A'        A'  (1)
   52    37           1.0325516366          28.0971584639     A'        A'  (1)
   53   120           1.0571369056          28.7661576440     A''       A'' (2)
   54    38           1.0849912439          29.5241127227     A'        A'  (1)
   55    39           1.1356373011          30.9022620023     A'        A'  (1)
   56   121           1.1525982267          31.3637922518     A''       A'' (2)
   57    40           1.1949531091          32.5163271957     A'        A'  (1)
   58   122           1.2388213657          33.7100431471     A''       A'' (2)
   59    41           1.2672294885          34.4830674683     A'        A'  (1)
   60   123           1.3353511275          36.3367515039     A''       A'' (2)
   61    42           1.4392598876          39.1642526139     A'        A'  (1)
   62   124           1.5228050929          41.4376332268     A''       A'' (2)
   63    43           1.5264555199          41.5369663953     A'        A'  (1)
   64    44           1.6212317693          44.1159592551     A'        A'  (1)
   65    45           1.7146188030          46.6571496335     A'        A'  (1)
   66    46           1.7831880826          48.5230145909     A'        A'  (1)
   67   125           2.1315666012          58.0028760278     A''       A'' (2)
   68    47           2.1511758946          58.5364720295     A'        A'  (1)
   69   126           2.2216101637          60.4530859299     A''       A'' (2)
   70    48           2.2465169244          61.1308333444     A'        A'  (1)
   71   127           2.2982553437          62.5387073087     A''       A'' (2)
   72    49           2.3052301797          62.7285022451     A'        A'  (1)
   73    50           2.3165430424          63.0363408889     A'        A'  (1)
   74   128           2.3270070184          63.3210801522     A''       A'' (2)
   75    51           2.3555416116          64.0975459071     A'        A'  (1)
   76    52           2.3754295388          64.6387239201     A'        A'  (1)
   77   129           2.4328904134          66.2023138086     A''       A'' (2)
   78    53           2.4613598004          66.9770052131     A'        A'  (1)
   79   130           2.4775551884          67.4177041259     A''       A'' (2)
   80    54           2.4889534324          67.7278661124     A'        A'  (1)
   81   131           2.5061591307          68.1960569679     A''       A'' (2)
   82    55           2.5649419825          69.7956196844     A'        A'  (1)
   83    56           2.8707865278          78.1180728674     A'        A'  (1)
   84   132           2.9015680186          78.9556798160     A''       A'' (2)
   85    57           2.9369332191          79.9180158449     A'        A'  (1)
   86    58           2.9702683765          80.8251115933     A'        A'  (1)
   87   133           3.0548356837          83.1263050142     A''       A'' (2)
   88    59           3.0579961080          83.2123045301     A'        A'  (1)
   89   134           3.0897155223          84.0754336753     A''       A'' (2)
   90    60           3.1269155590          85.0876981347     A'        A'  (1)
   91    61           3.1984348658          87.0338374139     A'        A'  (1)
   92   135           3.3692248773          91.6812698960     A''       A'' (2)
   93    62           3.3720949377          91.7593682119     A'        A'  (1)
   94    63           3.3875628132          92.1802705021     A'        A'  (1)
   95   136           3.7849400597         102.9934551096     A''       A'' (2)
   96    64           3.7888821799         103.1007256543     A'        A'  (1)
   97    65           3.8108962498         103.6997589506     A'        A'  (1)
   98   137           3.8497990310         104.7583574446     A''       A'' (2)
   99    66           3.9426475157         107.2848931620     A'        A'  (1)
  100   138           4.0152319651         109.2600164431     A''       A'' (2)
  101    67           4.0555999132         110.3584841563     A'        A'  (1)
  102    68           4.0872587626         111.2199652439     A'        A'  (1)
  103   139           4.1859898878         113.9065757465     A''       A'' (2)
  104    69           4.3118446326         117.3312574598     A'        A'  (1)
  105    70           4.5876547337         124.8364318651     A'        A'  (1)
  106    71           5.1282238017         139.5460640279     A'        A'  (1)
  107    72           5.8445955004         159.0395289804     A'        A'  (1)
  108   140           6.5448034131         178.0931549506     A''       A'' (2)
  109    73           6.5795660985         179.0390957124     A'        A'  (1)
  110   141           6.5943061036         179.4401916417     A''       A'' (2)
  111    74           6.6638198291         181.3317562769     A'        A'  (1)
  112   142           6.7655086343         184.0988493441     A''       A'' (2)
  113    75           6.8206691725         185.5998438962     A'        A'  (1)
  114    76           6.9496051018         189.1083689041     A'        A'  (1)
  115   143           7.0481155157         191.7889735465     A''       A'' (2)
  116    77           7.0867695387         192.8408029862     A'        A'  (1)
  117   144           7.1632078588         194.9207954192     A''       A'' (2)
  118    78           7.1853323076         195.5228322791     A'        A'  (1)
  119    79           7.6246583600         207.4775019283     A'        A'  (1)
  120   145          10.3495998993         281.6269308952     A''       A'' (2)
  121    80          10.3559920840         281.8008710854     A'        A'  (1)
  122   146          10.3884858416         282.6850711821     A''       A'' (2)
  123    81          10.4174639199         283.4736047812     A'        A'  (1)
  124    82          10.5896274957         288.1584138474     A'        A'  (1)
  125   147          12.6786474017         345.0035354408     A''       A'' (2)
  126    83          12.7140473452         345.9668168768     A'        A'  (1)
  127    84          13.1762677151         358.5444725777     A'        A'  (1)
  128    85          18.2274988993         495.9954609720     A'        A'  (1)
  129   148          26.0393405955         708.5664804274     A''       A'' (2)
  130    86          26.1707049193         712.1410854069     A'        A'  (1)
  131    87          26.5629635497         722.8149853919     A'        A'  (1)
  132    88          28.6718550327         780.2008400845     A'        A'  (1)
  133   149          36.8977012231        1004.0374945602     A''       A'' (2)
  134    89          36.8988032055        1004.0674810252     A'        A'  (1)
  135    90          36.8998762089        1004.0966789320     A'        A'  (1)
  136   150          36.8999897170        1004.0997676451     A''       A'' (2)
  137   151          36.9067226324        1004.2829795880     A''       A'' (2)
  138    91          36.9068900738        1004.2875359012     A'        A'  (1)
  139    92          36.9122867439        1004.4343867584     A'        A'  (1)
  140   152          43.8542215100        1193.3340352158     A''       A'' (2)
  141    93          43.8627953154        1193.5673403231     A'        A'  (1)
  142    94          43.8803456479        1194.0449091508     A'        A'  (1)
  143   153          43.8922704949        1194.3694007320     A''       A'' (2)
  144    95          44.0403468479        1198.3987631485     A'        A'  (1)
  145   154          46.4840366847        1264.8949442079     A''       A'' (2)
  146    96          46.4876549941        1264.9934034107     A'        A'  (1)
  147   155          46.5090567487        1265.5757747603     A''       A'' (2)
  148    97          46.5249662006        1266.0086929555     A'        A'  (1)
  149    98          46.6124124373        1268.3882260295     A'        A'  (1)
  150   156          55.0170183348        1497.0891794333     A''       A'' (2)
  151    99          55.0576286056        1498.1942410825     A'        A'  (1)
  152   100          55.5989226479        1512.9236007991     A'        A'  (1)
  153   101         103.7486929792        2823.1454619067     A'        A'  (1)
  154   157         138.2022353623        3760.6740131819     A''       A'' (2)
  155   102         138.2966247141        3763.2424780218     A'        A'  (1)
  156   103         138.5734720229        3770.7758762842     A'        A'  (1)
  157   104         149.3293558869        4063.4583559144     A'        A'  (1)


  VSCF finished.

 @CHECKOUT-I, Total execution time (CPU/WALL):       76.20/      14.38 seconds.
--executable xvscf finished with status     0 in       14.41 seconds (walltime).
 --invoking executable--
/home/asmola/.local/bin/xvtran
 @GETMEM-I,  Allocated    3814 MB of main memory.
  Full RHF integral transformation
  Transformation of IIII integrals :
  1 pass through the AO integral file was required.
    13973599 AO integrals were read.
    15933126 MO integrals were written to HF2.
  Transformation of IIJJ integrals :
  1 pass through the AO integral file was required.
     6788015 AO integrals were read.
     7813260 MO integrals were written to HF2.
  Transformation of IJIJ integrals :
  1 pass through the AO integral file was required.
    13096575 AO integrals were read.
    15193828 MO integrals were written to HF2.
  Summary of active molecular orbitals: 
------------------------------------------------------------------------
 
  Index      Eigenvalue    Symmetry    Index      Eigenvalue    Symmetry
------------------------------------------------------------------------
     1      -104.8877458        1        80         7.0867695        1
     2       -20.6737923        1        81         7.1853323        1
     3       -10.6071142        1        82         7.6246584        1
     4        -8.0736635        1        83        10.3559921        1
     5        -8.0717116        1        84        10.4174639        1
     6        -1.3481292        1        85        10.5896275        1
     7        -1.0263326        1        86        12.7140473        1
     8        -0.5927998        1        87        13.1762677        1
     9        -0.5556748        1        88        18.2274989        1
    10        -0.4018352        1        89        26.1707049        1
    11        -8.0714305        2        90        26.5629635        1
    12        -0.6028604        2        91        28.6718550        1
    13        -0.4356428        2        92        36.8988032        1
    14        -0.0767331        1        93        36.8998762        1
    15         0.0512658        1        94        36.9068901        1
    16         0.0772580        1        95        36.9122867        1
    17         0.1178695        1        96        43.8627953        1
    18         0.1443583        1        97        43.8803456        1
    19         0.1627074        1        98        44.0403468        1
    20         0.1761302        1        99        46.4876550        1
    21         0.2259582        1       100        46.5249662        1
    22         0.2706644        1       101        46.6124124        1
    23         0.2988956        1       102        55.0576286        1
    24         0.3418011        1       103        55.5989226        1
    25         0.3828237        1       104       103.7486930        1
    26         0.4541163        1       105       138.2966247        1
    27         0.5087960        1       106       138.5734720        1
    28         0.5829418        1       107       149.3293559        1
    29         0.6310837        1       108         0.1177096        2
    30         0.6619727        1       109         0.1891925        2
    31         0.7439127        1       110         0.2419051        2
    32         0.7660416        1       111         0.3646340        2
    33         0.7846100        1       112         0.4254209        2
    34         0.8177170        1       113         0.6189230        2
    35         0.9089413        1       114         0.7210931        2
    36         0.9457633        1       115         0.7797421        2
    37         0.9872124        1       116         0.8041134        2
    38         0.9980969        1       117         0.8786490        2
    39         1.0109914        1       118         0.9331772        2
    40         1.0325516        1       119         0.9775105        2
    41         1.0849912        1       120         1.0571369        2
    42         1.1356373        1       121         1.1525982        2
    43         1.1949531        1       122         1.2388214        2
    44         1.2672295        1       123         1.3353511        2
    45         1.4392599        1       124         1.5228051        2
    46         1.5264555        1       125         2.1315666        2
    47         1.6212318        1       126         2.2216102        2
    48         1.7146188        1       127         2.2982553        2
    49         1.7831881        1       128         2.3270070        2
    50         2.1511759        1       129         2.4328904        2
    51         2.2465169        1       130         2.4775552        2
    52         2.3052302        1       131         2.5061591        2
    53         2.3165430        1       132         2.9015680        2
    54         2.3555416        1       133         3.0548357        2
    55         2.3754295        1       134         3.0897155        2
    56         2.4613598        1       135         3.3692249        2
    57         2.4889534        1       136         3.7849401        2
    58         2.5649420        1       137         3.8497990        2
    59         2.8707865        1       138         4.0152320        2
    60         2.9369332        1       139         4.1859899        2
    61         2.9702684        1       140         6.5448034        2
    62         3.0579961        1       141         6.5943061        2
    63         3.1269156        1       142         6.7655086        2
    64         3.1984349        1       143         7.0481155        2
    65         3.3720949        1       144         7.1632079        2
    66         3.3875628        1       145        10.3495999        2
    67         3.7888822        1       146        10.3884858        2
    68         3.8108962        1       147        12.6786474        2
    69         3.9426475        1       148        26.0393406        2
    70         4.0555999        1       149        36.8977012        2
    71         4.0872588        1       150        36.8999897        2
    72         4.3118446        1       151        36.9067226        2
    73         4.5876547        1       152        43.8542215        2
    74         5.1282238        1       153        43.8922705        2
    75         5.8445955        1       154        46.4840367        2
    76         6.5795661        1       155        46.5090567        2
    77         6.6638198        1       156        55.0170183        2
    78         6.8206692        1       157       138.2022354        2
    79         6.9496051        1
------------------------------------------------------------------------
  -104.887745788261       -20.6737923449884       -10.6071141535954     
  -8.07366348916544       -8.07171158635654       -1.34812920946911     
  -1.02633262556139      -0.592799803974990      -0.555674751295002     
 -0.401835171168566       -8.07143047205009      -0.602860352674711     
 -0.435642825463265      -7.673311087608946E-002  5.126583249498418E-002
  7.725796046115049E-002  0.117869474178870       0.144358319117639     
  0.162707391915225       0.176130204384261       0.225958160883295     
  0.270664350465686       0.298895557393155       0.341801083952167     
  0.382823683091928       0.454116259244730       0.508796013848077     
  0.582941827236968       0.631083746013942       0.661972698519318     
  0.743912656227301       0.766041606282192       0.784610014826256     
  0.817716958209966       0.908941326147619       0.945763253521285     
  0.987212416109171       0.998096933050217        1.01099144779180     
   1.03255163660382        1.08499124387296        1.13563730105395     
   1.19495310906219        1.26722948853386        1.43925988760722     
   1.52645551990756        1.62123176931686        1.71461880300866     
   1.78318808263423        2.15117589462755        2.24651692439906     
   2.30523017970098        2.31654304238248        2.35554161157113     
   2.37542953880586        2.46135980036581        2.48895343235018     
   2.56494198249282        2.87078652779439        2.93693321909342     
   2.97026837648131        3.05799610798413        3.12691555897341     
   3.19843486582447        3.37209493773652        3.38756281322047     
   3.78888217988584        3.81089624978647        3.94264751574606     
   4.05559991324595        4.08725876259242        4.31184463263145     
   4.58765473368271        5.12822380165574        5.84459550043916     
   6.57956609851733        6.66381982905196        6.82066917245294     
   6.94960510181542        7.08676953874218        7.18533230762311     
   7.62465836001338        10.3559920840130        10.4174639199399     
   10.5896274956545        12.7140473452311        13.1762677151392     
   18.2274988993013        26.1707049192848        26.5629635497289     
   28.6718550327165        36.8988032054707        36.8998762088656     
   36.9068900738489        36.9122867438791        43.8627953154013     
   43.8803456479449        44.0403468479488        46.4876549940754     
   46.5249662005619        46.6124124372706        55.0576286056274     
   55.5989226479066        103.748692979228        138.296624714118     
   138.573472022896        149.329355886935       0.117709568342501     
  0.189192546466520       0.241905087083548       0.364634024258792     
  0.425420903511968       0.618922984001037       0.721093108305644     
  0.779742062869823       0.804113427946154       0.878648955963739     
  0.933177195843463       0.977510477806132        1.05713690557730     
   1.15259822665895        1.23882136573562        1.33535112749559     
   1.52280509291406        2.13156660119856        2.22161016370451     
   2.29825534370726        2.32700701840257        2.43289041337721     
   2.47755518838775        2.50615913073589        2.90156801862415     
   3.05483568373732        3.08971552233989        3.36922487726377     
   3.78494005966501        3.84979903096745        4.01523196512984     
   4.18598988784031        6.54480341306732        6.59430610358715     
   6.76550863430567        7.04811551574862        7.16320785878150     
   10.3495998992555        10.3884858416312        12.6786474016882     
   26.0393405955030        36.8977012230933        36.8999897169919     
   36.9067226324117        43.8542215099519        43.8922704948531     
   46.4840366847307        46.5090567486652        55.0170183348088     
   138.202235362347     
 @CHECKOUT-I, Total execution time (CPU/WALL):       34.20/      19.31 seconds.
--executable xvtran finished with status     0 in       19.38 seconds (walltime).
 --invoking executable--
/home/asmola/.local/bin/xintprc
 @GETMEM-I,  Allocated    3814 MB of main memory.
  Processing integrals for CCSD calculation.
  @GMOIAA-I, Processing MO integrals for spin case AA.
  @GMOIAA-I, Generation of integral list completed.
                      TYPE                NUMBER
                      ----               --------
                      PPPP              27524020
                      PPPH               9932000
                      PPHH                900748
                      PHPH                491140
                      PHHH                 89950
                      HHHH                  2356

                     TOTAL              38940214

  @FORMT2-I, Second-order MP correlation energies:
            ------------------------------------------------
            E(SCF)                  =   -534.703082491100 a.u.
            E2(AA)                  =     -0.112859121749 a.u.
            E2(AB)                  =     -0.677313233478 a.u.
            E2(TOT)                 =     -0.903031476976 a.u.
            Total MP2 energy        =   -535.606113968076 a.u.
            ------------------------------------------------
   Largest T2 amplitudes for spin case AB:
       _       _                 _       _                 _       _
   i   j   a   b             i   j   a   b             i   j   a   b
-----------------------------------------------------------------------------
[ 10  10  14  14]-0.14956 [ 10   9  14  14]-0.07850 [  9  10  14  14]-0.07850
[  9   9  14  14]-0.06964 [  8   8  19  19]-0.04229 [  9   8  14  19]-0.03415
[  8   9  19  14]-0.03415 [ 10  10  15  14] 0.03246 [ 10  10  14  15] 0.03246
[  8   8  19  16] 0.02869 [  8   8  16  19] 0.02869 [ 10  10  23  14]-0.02414
[ 10  10  14  23]-0.02414 [ 10  10  16  14]-0.02407 [ 10  10  14  16]-0.02407
-----------------------------------------------------------------------------
   Norm of T2AB vector (  1799624 symmetry allowed elements):  0.4146431825.
-----------------------------------------------------------------------------
 @CHECKOUT-I, Total execution time (CPU/WALL):        6.21/      10.13 seconds.
--executable xintprc finished with status     0 in       10.26 seconds (walltime).
  calling xvcc 
 --invoking executable--
/home/asmola/.local/bin/xvcc
 @GETMEM-I,  Allocated    3814 MB of main memory.
   CCSD energy will be calculated.
   The total correlation energy is -0.903031476976 a.u.
   The total correlation energy is -0.880022412733 a.u.
  Convergence information after     1 iterations: 
  Largest element of residual vector :  0.43337225E-01.
  Largest element of DIIS residual   :  0.43337225E-01.
   The total correlation energy is -0.914678352851 a.u.
  Convergence information after     2 iterations: 
  Largest element of residual vector : -0.52489748E-01.
  Largest element of DIIS residual   : -0.41055178E-01.
   The total correlation energy is -0.911183825890 a.u.
  Convergence information after     3 iterations: 
  Largest element of residual vector : -0.22495859E-01.
  Largest element of DIIS residual   :  0.19370434E-01.
   The total correlation energy is -0.916326314059 a.u.
  Convergence information after     4 iterations: 
  Largest element of residual vector : -0.93215800E-02.
  Largest element of DIIS residual   : -0.24756290E-02.
   The total correlation energy is -0.918251429399 a.u.
  Convergence information after     5 iterations: 
  Largest element of residual vector :  0.35828983E-02.
  Largest element of DIIS residual   :  0.12890729E-02.
   The total correlation energy is -0.918367302323 a.u.
  Convergence information after     6 iterations: 
  Largest element of residual vector :  0.11627794E-02.
  Largest element of DIIS residual   :  0.10289545E-02.
   The total correlation energy is -0.918355282100 a.u.
  Convergence information after     7 iterations: 
  Largest element of residual vector :  0.58549118E-03.
  Largest element of DIIS residual   :  0.55867419E-03.
   The total correlation energy is -0.918381727943 a.u.
  Convergence information after     8 iterations: 
  Largest element of residual vector :  0.38885340E-03.
  Largest element of DIIS residual   :  0.20261163E-03.
   The total correlation energy is -0.918369170103 a.u.
  Convergence information after     9 iterations: 
  Largest element of residual vector :  0.15175830E-03.
  Largest element of DIIS residual   :  0.81280345E-04.
   The total correlation energy is -0.918380403713 a.u.
  Convergence information after    10 iterations: 
  Largest element of residual vector :  0.46841344E-04.
  Largest element of DIIS residual   : -0.52801608E-04.
   The total correlation energy is -0.918383126060 a.u.
  Convergence information after    11 iterations: 
  Largest element of residual vector :  0.50889308E-04.
  Largest element of DIIS residual   : -0.18172684E-04.
   The total correlation energy is -0.918383234428 a.u.
  Convergence information after    12 iterations: 
  Largest element of residual vector : -0.11775530E-04.
  Largest element of DIIS residual   : -0.69522303E-05.
   The total correlation energy is -0.918384373775 a.u.
  Convergence information after    13 iterations: 
  Largest element of residual vector : -0.93870375E-05.
  Largest element of DIIS residual   : -0.74647642E-05.
   The total correlation energy is -0.918384886341 a.u.
  Convergence information after    14 iterations: 
  Largest element of residual vector : -0.25263057E-05.
  Largest element of DIIS residual   : -0.26969955E-05.
   The total correlation energy is -0.918384589744 a.u.
  Convergence information after    15 iterations: 
  Largest element of residual vector : -0.21377692E-05.
  Largest element of DIIS residual   :  0.95841088E-06.
   The total correlation energy is -0.918384845011 a.u.
  Convergence information after    16 iterations: 
  Largest element of residual vector : -0.11325099E-05.
  Largest element of DIIS residual   : -0.74375498E-06.
   The total correlation energy is -0.918384768318 a.u.
  Convergence information after    17 iterations: 
  Largest element of residual vector :  0.76722706E-06.
  Largest element of DIIS residual   :  0.57386515E-06.
   The total correlation energy is -0.918384752960 a.u.
  Convergence information after    18 iterations: 
  Largest element of residual vector : -0.44902865E-06.
  Largest element of DIIS residual   : -0.22390540E-06.
   The total correlation energy is -0.918384749208 a.u.
  Convergence information after    19 iterations: 
  Largest element of residual vector : -0.19209103E-06.
  Largest element of DIIS residual   :  0.11645892E-06.
   The total correlation energy is -0.918384729831 a.u.
  Convergence information after    20 iterations: 
  Largest element of residual vector : -0.10906139E-06.
  Largest element of DIIS residual   : -0.35458660E-07.
   The total correlation energy is -0.918384724323 a.u.
  Convergence information after    21 iterations: 
  Largest element of residual vector : -0.57152720E-07.
  Largest element of DIIS residual   :  0.38988543E-07.
   The total correlation energy is -0.918384724547 a.u.
  Convergence information after    22 iterations: 
  Largest element of residual vector : -0.38559985E-07.
  Largest element of DIIS residual   : -0.11593180E-07.
   The total correlation energy is -0.918384721278 a.u.
  Convergence information after    23 iterations: 
  Largest element of residual vector : -0.18065850E-07.
  Largest element of DIIS residual   : -0.39302545E-08.
   The total correlation energy is -0.918384720966 a.u.
[...]
 final tnorm  0.709663665249278     
  norm contr. I: |<0|L dT/dx|0>|^2   0.000000000000000E+000
  norm contr. II: <0|[nabla(1+L)e-T][nabla e^T]|0>  0.444323871753585     
  total norm contribution  0.444323871753585     
 oo  2.144687801208308E-003
 vv  -1.40561343498232     
 vo -3.281954752246611E-002
  Correlated perturbed 1-el contribution to DBOC  -1.43628829470358       cm**-1
  SUM_I |dc_I/dx|^2 contribution to DBOC  0.723772607538178       cm**-1
 
 
  The total diagonal Born-Oppenheimer correction (DBOC) is:      0.0084544580 a.u.
  The total diagonal Born-Oppenheimer correction (DBOC) is:       1855.539042 cm-1
 
 Total CC energy including DBOC  -535.613012753778     
 First-order density matrix is being calculated  (Symmetry block 2, perturbation   3)
 Calculation of the contributions of <pq||rs> to dI(i,j)/dx required   3.0 seconds.
 Calculation of the contributions of <pq||rs> to dI(a,b)/dx required  10.2 seconds.
 Calculation of the contributions of <pq||rs> to dI(i,a)/dx required   6.1 seconds.
 First-order Z-vector equations are solved for 1 perturbation.
 Convergence reached after  25 iterations.
        U*G(pq,rs) contribution is being calculated
             (Symmetry block 2, perturbation   3)

 CCSD contribution to force constants 

        0.0000000000        0.0000000000        0.0000000000
        0.0000000000        0.0000000000        0.0000000000
        0.0000000000        0.0000000000        0.0000000000
        0.0000000000        0.0000000000        0.0000000000
        0.0000000000        0.0000000000        0.0000000000
        0.0000000000        0.0000000000        0.0000000000
        0.0000000000        0.0000000000        0.0000000000
        0.0000000000        0.0000000000        0.0000000000
        0.0000000000        0.0000000000        0.0000000000
        0.0000000000        0.0000000000        0.0000000000
        0.0000000000        0.0000000000        0.0000000000
        0.0000000000        0.0000000000        0.0000000000
        0.0000000000        0.0000000000        0.0000000000
        0.0000000000        0.0000000000        0.0000000000
        0.0000000000        0.0000000000        0.0000000000
        0.0000000000        0.0000000000        0.0000000000
        0.0000000000        0.0000000000        0.0000000000
        0.0000000000        0.0000000000        0.0000000000
        0.0000000000        0.0000000000        0.0000000000
        0.0000000000        0.0000000000        0.0000000000
        0.0000000000        0.0000000000        0.0000000000
        0.0000000000        0.0000000000        0.0000000000
        0.0000000000        0.0000000000        0.0000000000
        0.0000000000        0.0000000000        0.0000000000
        0.0000000000        0.0000000000        0.0000000000
        0.0000000000        0.0000000000        0.0000000000
        0.0629561462        0.0044868666       -0.0674430127

 CCSD contribution to dipole derivatives 

        0.0000000000        0.0000000000        0.0000000000
        0.0000000000        0.0000000000        0.0000000000
        0.0000000000        0.0000000000        0.0000000000
        0.0000000000        0.0000000000        0.0000000000
        0.0000000000        0.0000000000        0.0000000000
        0.0000000000        0.0000000000        0.0000000000
        0.0000000000        0.0000000000        0.0000000000
        0.0000000000        0.0000000000        0.0000000000
        0.0000000000        0.0000000000        0.0266610029
 @CHECKOUT-I, Total execution time (CPU/WALL):     1135.91/     271.00 seconds.
--executable xsdcc finished with status     0 in      271.17 seconds (walltime).
 --invoking executable--
/home/asmola/.local/bin/xanti
 @GETMEM-I,  Allocated    3814 MB of main memory.
 CCSD MO derivative gammas will be sorted to Mulliken order.
 @CHECKOUT-I, Total execution time (CPU/WALL):        6.22/       4.88 seconds.
--executable xanti finished with status     0 in        5.00 seconds (walltime).
 --invoking executable--
/home/asmola/.local/bin/xbcktrn
 @GETMEM-I,  Allocated    3814 MB of main memory.
 CCSD MO derivative gammas will be transformed to the AO basis.
 @CHECKOUT-I, Total execution time (CPU/WALL):       12.19/       2.77 seconds.
--executable xbcktrn finished with status     0 in        2.84 seconds (walltime).
 --invoking executable--
/home/asmola/.local/bin/xvdint
 @GETMEM-I,  Allocated    3814 MB of main memory.
 One- and two-electron integral derivatives are calculated
 for RHF-CC/MBPT hessians and dipole derivatives.
 Spherical gaussians are used.
  magnet F F
 Evaluation of 2el integral derivatives

                      Two-electron integral gradient
                      ------------------------------

                         O #1 x     0.0000000000
                         O #1 y     0.0000000000
                         H #2 x     0.0000000000
                         H #2 y     0.0000000000
                         CL#3 x     0.0000000000
                         CL#3 y     0.0000000000


 O #1       0.0000000000            0.0000000000           -0.0894848495
 H #2       0.0000000000            0.0000000000           -0.0007317280
 CL#3       0.0000000000            0.0000000000            0.0902165774


 Evaluation of 2e integral derivatives required  122.73 seconds.
  contribution to Hessian
        0.0000000000        0.0000000000        0.0000000000
        0.0000000000        0.0000000000        0.0000000000
       -0.0894848495       -0.0007317280        0.0902165774
 @CHECKOUT-I, Total execution time (CPU/WALL):      122.90/      21.25 seconds.
--executable xvdint finished with status     0 in       21.35 seconds (walltime).
 --invoking executable--
/home/asmola/.local/bin/xanti
 @GETMEM-I,  Allocated    3814 MB of main memory.
 CCSD MO gammas will be sorted to Mulliken order.
 @CHECKOUT-I, Total execution time (CPU/WALL):        9.15/      15.46 seconds.
--executable xanti finished with status     0 in       15.56 seconds (walltime).
 --invoking executable--
/home/asmola/.local/bin/xbcktrn
 @GETMEM-I,  Allocated    3814 MB of main memory.
 CCSD MO gammas will be transformed to the AO basis.
 @CHECKOUT-I, Total execution time (CPU/WALL):       17.88/       3.11 seconds.
--executable xbcktrn finished with status     0 in        3.19 seconds (walltime).
 --invoking executable--
/home/asmola/.local/bin/xvdint
 @GETMEM-I,  Allocated    3814 MB of main memory.
 One- and two-electron integral derivatives are calculated
 for RHF-CC/MBPT hessians and dipole derivatives.
 Spherical gaussians are used.
  magnet F F

                     Kinetic energy integral gradient
                     --------------------------------

                         O #1 x     0.3532949730
                         O #1 y    -0.0680660609
                         H #2 x     0.0183270541
                         H #2 y     0.0417374898
                         CL#3 x    -0.3716220271
                         CL#3 y     0.0263285711


 O #1       0.3532949730           -0.0680660609            0.0000000000
 H #2       0.0183270541            0.0417374898            0.0000000000
 CL#3      -0.3716220271            0.0263285711            0.0000000000



                   Nuclear attraction integral gradient
                   ------------------------------------

                         O #1 x   -26.1761894728
                         O #1 y     4.3373076513
                         H #2 x    -1.4676890317
                         H #2 y    -2.2528956460
                         CL#3 x    27.6438785045
                         CL#3 y    -2.0844120053


 O #1     -26.1761894728            4.3373076513            0.0000000000
 H #2      -1.4676890317           -2.2528956460            0.0000000000
 CL#3      27.6438785045           -2.0844120053            0.0000000000



                      Reorthonormalization gradient
                      -----------------------------

                         O #1 x     0.0000000000
                         O #1 y     0.0000000000
                         H #2 x     0.0000000000
                         H #2 y     0.0000000000
                         CL#3 x     0.0000000000
                         CL#3 y     0.0000000000


 O #1       0.0000000000            0.0000000000            0.0000000000
 H #2       0.0000000000            0.0000000000            0.0000000000
 CL#3       0.0000000000            0.0000000000            0.0000000000



                     Kinetic energy integral Hessian
                     -------------------------------


           Symmetry 1

           O #1 x      O #1 y      H #2 x      H #2 y      CL#3 x      CL#3 y

 O #1 x    0.401727
 O #1 y   -0.026394   -0.196310
 H #2 x    0.000380   -0.030022   -0.004376
 H #2 y   -0.030022   -0.043899    0.028330    0.044431
 CL#3 x   -0.402107    0.056416    0.003996    0.001691    0.398111
 CL#3 y    0.056416    0.240209    0.001691   -0.000532   -0.058107   -0.239677


           Symmetry 2

           O #1 z      H #2 z      CL#3 z

 O #1 z   -0.241836
 H #2 z    0.016788   -0.016099
 CL#3 z    0.225048   -0.000690   -0.224358




           O #1 x      O #1 y      O #1 z      H #2 x      H #2 y      H #2 z

 O #1 x    0.401727
 O #1 y   -0.026394   -0.196310
 O #1 z    0.000000    0.000000   -0.241836

 H #2 x    0.000380   -0.030022    0.000000   -0.004376
 H #2 y   -0.030022   -0.043899    0.000000    0.028330    0.044431
 H #2 z    0.000000    0.000000    0.016788    0.000000    0.000000   -0.016099

 CL#3 x   -0.402107    0.056416    0.000000    0.003996    0.001691    0.000000
 CL#3 y    0.056416    0.240209    0.000000    0.001691   -0.000532    0.000000
 CL#3 z    0.000000    0.000000    0.225048    0.000000    0.000000   -0.000690


           CL#3 x      CL#3 y      CL#3 z

 CL#3 x    0.398111
 CL#3 y   -0.058107   -0.239677
 CL#3 z    0.000000    0.000000   -0.224358




                   Nuclear attraction integral Hessian
                   -----------------------------------


           Symmetry 1

           O #1 x      O #1 y      H #2 x      H #2 y      CL#3 x      CL#3 y

 O #1 x  -14.195391
 O #1 y    1.987984   10.011782
 H #2 x   -0.322197    0.654265    0.251883
 H #2 y    0.643084    0.636602   -0.912375   -0.785591
 CL#3 x   14.517588   -2.642249    0.070314    0.269291  -14.587902
 CL#3 y   -2.631068  -10.648384    0.258110    0.148989    2.372957   10.499395


           Symmetry 2

           O #1 z      H #2 z      CL#3 z

 O #1 z   10.660608
 H #2 z   -0.672203    0.800336
 CL#3 z   -9.988405   -0.128133   10.116538




           O #1 x      O #1 y      O #1 z      H #2 x      H #2 y      H #2 z

 O #1 x  -14.195391
 O #1 y    1.987984   10.011782
 O #1 z    0.000000    0.000000   10.660608

 H #2 x   -0.322197    0.654265    0.000000    0.251883
 H #2 y    0.643084    0.636602    0.000000   -0.912375   -0.785591
 H #2 z    0.000000    0.000000   -0.672203    0.000000    0.000000    0.800336

 CL#3 x   14.517588   -2.642249    0.000000    0.070314    0.269291    0.000000
 CL#3 y   -2.631068  -10.648384    0.000000    0.258110    0.148989    0.000000
 CL#3 z    0.000000    0.000000   -9.988405    0.000000    0.000000   -0.128133


           CL#3 x      CL#3 y      CL#3 z

 CL#3 x  -14.587902
 CL#3 y    2.372957   10.499395
 CL#3 z    0.000000    0.000000   10.116538




                Highest order reorthonormalization Hessian
                ------------------------------------------


           Symmetry 1

           O #1 x      O #1 y      H #2 x      H #2 y      CL#3 x      CL#3 y

 O #1 x    0.000000
 O #1 y    0.000000    0.000000
 H #2 x    0.000000    0.000000    0.000000
 H #2 y    0.000000    0.000000    0.000000    0.000000
 CL#3 x    0.000000    0.000000    0.000000    0.000000    0.000000
 CL#3 y    0.000000    0.000000    0.000000    0.000000    0.000000    0.000000


           Symmetry 2

           O #1 z      H #2 z      CL#3 z

 O #1 z    0.000000
 H #2 z    0.000000    0.000000
 CL#3 z    0.000000    0.000000    0.000000




           O #1 x      O #1 y      O #1 z      H #2 x      H #2 y      H #2 z


           CL#3 x      CL#3 y      CL#3 z




                Electronic contributions to dipole moment
                -----------------------------------------

                               au             Debye

                    x      3.33946264      8.48806885
                    y      1.08793676      2.76525989

  Conversion factor used: 1 a.u. =   2.54174691 Debye 



   Electronic contributions to static part of dipole moment derivatives
   --------------------------------------------------------------------


                     Total dipole moment derivatives
                     -------------------------------


           Symmetry 1
                              Ex             Ey

               O #1 x    -8.52180644    -0.06539005
               O #1 y    -0.23715936    -8.58679138
               H #2 x    -0.72795157     0.03464942
               H #2 y     0.26403643    -0.65077167
               CL#3 x   -16.75024199     0.03074063
               CL#3 y    -0.02687707   -16.76243695

           Symmetry 2
                              Ez

               O #1 z    -8.33066099
               H #2 z    -0.85518600
               CL#3 z   -16.81415301



                       Ex          Ey          Ez

      O #1    x   -8.521806   -0.065390    0.000000
      O #1    y   -0.237159   -8.586791    0.000000
      O #1    z    0.000000    0.000000   -8.330661

      H #2    x   -0.727952    0.034649    0.000000
      H #2    y    0.264036   -0.650772    0.000000
      H #2    z    0.000000    0.000000   -0.855186

      CL#3    x  -16.750242    0.030741    0.000000
      CL#3    y   -0.026877  -16.762437    0.000000
      CL#3    z    0.000000    0.000000  -16.814153

 Evaluation of 1e integral derivatives required    1.61 seconds.
 Evaluation of 2el integral derivatives

                      Two-electron integral gradient
                      ------------------------------

                         O #1 x    12.5059507929
                         O #1 y    -2.2308041957
                         H #2 x     0.7461949442
                         H #2 y     1.3000436888
                         CL#3 x   -13.2521457372
                         CL#3 y     0.9307605069


 O #1      12.5059507929           -2.2308041957            0.0000000000
 H #2       0.7461949442            1.3000436888            0.0000000000
 CL#3     -13.2521457372            0.9307605069            0.0000000000


 Evaluation of 2e integral derivatives required  289.90 seconds.

                            Molecular gradient
                            ------------------

                         O #1 x    -0.1656302696
                         O #1 y     0.1067601437
                         H #2 x    -0.0359888011
                         H #2 y    -0.0925172669
                         CL#3 x     0.2016190707
                         CL#3 y    -0.0142428768


 O #1      -0.1656302696            0.1067601437            0.0000000000
 H #2      -0.0359888011           -0.0925172669            0.0000000000
 CL#3       0.2016190707           -0.0142428768            0.0000000000


  Molecular gradient norm 0.299E+00

                            Molecular hessian
                            -----------------


           Symmetry 1

           O #1 x      O #1 y      H #2 x      H #2 y      CL#3 x      CL#3 y

 O #1 x    2.019065
 O #1 y   -0.133000    0.312636
 H #2 x   -0.301048   -0.664618    0.221520
 H #2 y   -0.613401   -1.637738    0.596552    1.507790
 CL#3 x   -1.718017    1.351562   -0.045449   -0.086304    1.763466
 CL#3 y    0.746401    1.325101    0.003986    0.006025   -0.750387   -1.331127


           Symmetry 2

           O #1 z      H #2 z      CL#3 z

 O #1 z    0.208066
 H #2 z   -0.067653    0.026321
 CL#3 z   -0.140413    0.005443    0.134971




           O #1 x      O #1 y      O #1 z      H #2 x      H #2 y      H #2 z

 O #1 x    2.019065
 O #1 y   -0.133000    0.312636
 O #1 z    0.000000    0.000000    0.208066

 H #2 x   -0.301048   -0.664618    0.000000    0.221520
 H #2 y   -0.613401   -1.637738    0.000000    0.596552    1.507790
 H #2 z    0.000000    0.000000   -0.067653    0.000000    0.000000    0.026321

 CL#3 x   -1.718017    1.351562    0.000000   -0.045449   -0.086304    0.000000
 CL#3 y    0.746401    1.325101    0.000000    0.003986    0.006025    0.000000
 CL#3 z    0.000000    0.000000   -0.140413    0.000000    0.000000    0.005443


           CL#3 x      CL#3 y      CL#3 z

 CL#3 x    1.763466
 CL#3 y   -0.750387   -1.331127
 CL#3 z    0.000000    0.000000    0.134971




                           Total dipole moment
                           -------------------

                               au             Debye

                    x      0.02045095      0.05198115
                    y     -0.43033901     -1.09381284

  Conversion factor used: 1 a.u. =   2.54174691 Debye 



                     Total dipole moment derivatives
                     -------------------------------


           Symmetry 1
                              Ex             Ey

               O #1 x     0.37094886     0.30267155
               O #1 y     0.18094462     0.07393086
               H #2 x    -0.03003132    -0.16694505
               H #2 y    -0.26542651    -0.19065278
               CL#3 x    -0.34091731    -0.13572634
               CL#3 y     0.08448198     0.11672207

           Symmetry 2
                              Ez

               O #1 z    -0.17942685
               H #2 z     0.11756715
               CL#3 z     0.06185989



                       Ex          Ey          Ez

      O #1    x    0.370949    0.302672    0.000000
      O #1    y    0.180945    0.073931    0.000000
      O #1    z    0.000000    0.000000   -0.179427

      H #2    x   -0.030031   -0.166945    0.000000
      H #2    y   -0.265427   -0.190653    0.000000
      H #2    z    0.000000    0.000000    0.117567

      CL#3    x   -0.340917   -0.135726    0.000000
      CL#3    y    0.084482    0.116722    0.000000
      CL#3    z    0.000000    0.000000    0.061860

  Molecular gradient does not satisfy rotational invariance condition.
   rotational invariance in yz-plane :        0.0000E+00
   rotational invariance in xz-plane :        0.0000E+00
   rotational invariance in xy-plane :        -.3423E-01
 @CHECKOUT-I, Total execution time (CPU/WALL):      291.60/      41.60 seconds.
--executable xvdint finished with status     0 in       41.70 seconds (walltime).
 --invoking executable--
/home/asmola/.local/bin/xjoda
  @GTFLGS-I, Hessian will be transformed to curvilinear coordinates.
  @GTFLGS-I, Hessian will be transformed to curvilinear coordinates.
  igrd and ihes are                      0                     1
  gradient from JOBARC 
  -0.165630269594752   0.106760143719854   0.000000000000000
  -0.035988801125530  -0.092517266946242   0.000000000000000
   0.201619070720250  -0.014242876773614   0.000000000000000
 
  @PROJFCM-I, Projecting force constant matrix onto totally symmetric subspace.
  Largest difference between matrix elements of symmetrized
  and unsymmetrized FCM :     0.0000000000E+00.
  read isotopes from ZMAT file 
 
  Summary of diagonal Born-Oppenheimer correction at the correlated level
  The total diagonal Born-Oppenheimer correction (DBOC) is:      0.0084544580 a.u.
  The total diagonal Born-Oppenheimer correction (DBOC) is:       1855.539042 cm-1
  The total diagonal Born-Oppenheimer correction (DBOC) is:            22.197 kJ/mole
  hellooooooo 
  readis is  F
 
 @CHECKOUT-I, Total execution time (CPU/WALL):        0.03/       0.08 seconds.
--executable xjoda finished with status     0 in        0.12 seconds (walltime).
  The final electronic energy is      -535.613012753778207 a.u. 
  This computation required                         3007.34 seconds (walltime).
