 --invoking executable--
/home/asmola/.local/bin/xjoda


   *************************************************************************
         <<<     CCCCCC     CCCCCC   |||     CCCCCC     CCCCCC   >>>
       <<<      CCC        CCC       |||    CCC        CCC         >>>
      <<<      CCC        CCC        |||   CCC        CCC            >>>
    <<<        CCC        CCC        |||   CCC        CCC              >>>
      <<<      CCC        CCC        |||   CCC        CCC            >>>
       <<<      CCC        CCC       |||    CCC        CCC         >>>
         <<<     CCCCCC     CCCCCC   |||     CCCCCC     CCCCCC   >>>
   *************************************************************************

     ****************************************************************
     * CFOUR Coupled-Cluster techniques for Computational Chemistry *
     ****************************************************************
 

   Department of Chemistry                Institut fuer Physikalische Chemie
   University of Florida                  Universitaet Mainz
   Gainesville, FL 32611, USA             D-55099 Mainz, Germany

   Department of Chemistry                Fakultaet fuer Chemie und Biowiss.
   Johns Hopkins University               Karlsruher Institut fuer Technologie
   Baltimore, MD 21218, USA               D-76131 Karlsruhe, Germany

   Department of Chemistry                Department of Physical Chemistry
   Southern Methodist University          Eotvos Lorand University
   Dallas, TX 75275, USA                  H-1053 Budapest, Hungary

 
                       Version 2.1
 
                     vincent.theory.phys.ucl.ac.uk                     
                     Wed 29 Jan 21:41:32 GMT 2025                      
                     integer*8 version is running
 
********************************************************************************
*                          Input from ZMAT file                                *
********************************************************************************
Hypochlorous acid DBOC calculation                                              
O                                                                               
H 1 ROH                                                                         
CL 1 ROCL 2 A                                                                   
                                                                                
ROH=0.9500000000000003                                                          
ROCL=1.683                                                                      
A=107.0                                                                         
                                                                                
                                                                                
*CFOUR(CALC=CCSD,BASIS=AUG-PCVTZ,SCF_CONV=10                                    
CC_CONV=10,DBOC=ON,MEMORY=500000000)                                            
********************************************************************************
  @GTFLGS-I, Hessian will be transformed to curvilinear coordinates.
    -------------------------------------------------------------------
                    CFOUR Control Parameters 
    -------------------------------------------------------------------
        External           Internal           Value            Units
          Name               Name
    -------------------------------------------------------------------
       ABCDTYPE             IABCDT         STANDARD    [  0]    ***   
       ANHARMONIC           IANHAR         OFF         [  0]    ***   
       ANH_ALGORIT          IANALG         STANDARD    [  0]    ***   
       ANH_DERIVAT          IANDER         SECOND      [  1]    ***   
       ANH_MODE             ANHMOD         VIBRATION   [  0]    ***   
       ANH_STEPSIZ          ICUBST             50000          x 10-6  
       ANH_SYMMETR          IANHSM         ABELIAN     [  0]    ***   
       AO_LADDERS           IAOLAD         SINGLEPASS  [  1]    ***   
       AV_SCF               IAVSCF         OFF         [  0]    ***   
       BASIS                IBASIS         AUG-PCVTZ   [ 51]    ***   
       BOTHVECTORS          BOTHVC         OFF         [  0]    ***   
       BOX_POTENT           IPIAB          OFF         [  0]    ***   
       BREIT                IBREIT         OFF         [  0]    ***   
       BRUCK_CONV           IBRTOL          10D-  4             ***   
       BRUECKNER            IBRKNR         OFF         [  0]    ***   
       BUFFERSIZE           IBUFFS              4096            ***   
       CACHE_RECS           ICHREC             10               ***   
       CALCLEVEL            ICLLVL         CCSD        [ 10]    ***   
       CCORBOPT             ICCORB         OFF         [  0]  x 0.01  
       CC_CONV              ICCCNV          10D- 10             ***   
       CC_EXPORDER          ICCEOR              5               ***   
       CC_EXTRAPOL          ICCEXT         DIIS        [  1]    ***   
       CC_GUESS             ICCGES         MP2         [  0]    ***   
       CC_MAXCYC            ICCCYC            100              cycles 
       CC_PROGRAM           ICCPRO         VCC         [  0]    ***   
       CHARGE               ICHRGE              0               ***   
       CHOLESKY             ICHOLE         OFF         [  0]    ***   
       CIS_CONV             ICISTL              5               ***   
       COMM_SIZE            IPSIZE            ***               ***   
       CONSTANT             ICONST         OLD         [  1]    ***   
       CONTINUUM            ICONTU         NONE        [  0]    ***   
       CONTRACTION          ICNTYP         GENERAL     [  1]    ***   
       COORDINATES          ICOORD         INTERNAL    [  0]    ***   
       CPHF_CONVER          ICPHFT          10D- 16             ***   
       CPHF_MAXCYC          ICPHFC             64              cycles 
       CUBIC                ICUBIC         OFF         [  0]    ***   
       CURVILINEAR          ICURVY         ON          [  1]    ***   
       DBOC                 IDBOC          ON          [  1]    ***   
       DCT                  IDCT           OFF         [  0]    ***   
       DERIV_LEV            IDRLVL         SECOND      [  2]    ***   
       DEVMEM_SIZE          IDVMEM          50000000           MByte  
       DIAG_MRCC            IEOMST          10D-  0             ***   
       DIFF_TYPE            IDIFTY         RELAXED     [  0]    ***   
       DIRECT               IDIRCT         OFF         [  0]    ***   
       DROPMO               IDRPMO      NONE         
       ECP                  IECP           OFF         [  0]    ***   
       EIGENVECTOR          IVEC                1               ***   
       EL_ANHARM            IELANH         OFF         [  0]    ***   
       EOMFOLLOW            IEOMSR         ENERGY      [  0]    ***   
       EOMIP                IEOMIP         OFF         [  0]    ***   
       EOMLEVEL             HBARFM         SAME        [  0]    ***   
       EOM_MRCC             IMRCCE         NEW         [  1]    ***   
       EOM_NONIT            EOMNON         OFF         [  0]    ***   
       EOM_NSING            IEOMSI          10D-  0             ***   
       EOM_NSTATES          IMRCCD         DAVIDSON    [  0]    ***   
       EOM_NTRIP            IEOMTR          10D-  0             ***   
       EOM_ORDER            IEXORD         ENERGY      [  0]    ***   
       EOM_PROPSTA          IEOMST              0               ***   
       ESTATE_CONV          IEXTOL          10D-  5             ***   
       ESTATE_DIAG          IEXDIG         ITERATIVE   [  0]    ***   
       ESTATE_LOCK          IESLOC         ON          [  1]    ***   
       ESTATE_MAXC          IEXMXC             40               ***   
       ESTATE_PROP          IEXPRP         OFF         [  0]    ***   
       EVAL_HESS            IRECAL              0            # of cyc.
       EXCITATION           IEXCIT              0               ***   
       EXCITE               IEXCIT         NONE        [  0]    ***   
       EXTERN_POT           IEXPOT         OFF         [  0]    ***   
       FCGRADNEW            IFCGNW         OFF         [  0]    ***   
       FC_FIELD             IFINFC              0             x 10-6  
       FD_CALTYPE           IFDCAL         GRADONLY    [  0]    ***   
       FD_PROJECT           IFDPRJ         OFF         [  1]    ***   
       FD_STEPSIZE          IDISFD              0            10-4 bohr
       FD_USEGROUP          IFDGRP         FULL        [  0]    ***   
       FILE_RECSIZ          IFLREC              4096           words  
       FINITE_PERT          IFIPER              0             x 10-6  
       FIXGEOM              IFIXGM         OFF         [  0]    ***   
       FOCK                 IFOCK          AO          [  1]    ***   
       FREQ_ALGORI          IVIALG         STANDARD    [  0]    ***   
       FROZEN_CORE          IFROCO         OFF         [  0]    ***   
       GAMMA_ABCD           IGABCD         STORE       [  0]    ***   
       GAMMA_ABCI           IGABCI         STORE       [  0]    ***   
       GENBAS_1             IGNBS1              0               ***   
       GENBAS_2             IGNBS2              0               ***   
       GENBAS_3             IGNBS3              0               ***   
       GENBAS_4             IGNBS4              0               ***   
       GEO_CONV             ICONTL              5              H/bohr 
       GEO_MAXCYC           IOPTCY             50               ***   
       GEO_MAXSTEP          IMXSTP            300            millibohr
       GEO_METHOD           INR            SINGLE_POINT[  5]    ***   
       GIAO                 IGIAO          OFF         [  1]    ***   
       GIMIC                IGIMIC         OFF         [  0]    ***   
       GRID                 IGRID          OFF         [  0]    ***   
       GRID_ALGO            IGALGO         SERIAL      [  0]    ***   
       GUESS                IGUESS         MOREAD      [  0]    ***   
       HBAR                 IHBAR          OFF         [  0]    ***   
       HESS_TYPE            IHESTP         SCF         [  0]    ***   
       HF2_FILE             IHF2Fl         USE         [  1]    ***   
       HFSTABILITY          ISTABL         OFF         [  0]    ***   
       INCORE               INCORE         OFF         [  0]    ***   
       INPUT_MRCC           IMRCC          ON          [  1]    ***   
       INTEGRALS            INTTYP         VMOL        [  1]    ***   
       JODA_PRINT           IJPRNT              0               ***   
       KEYWORD_OUT          IDMPKW         NO          [  0]    ***   
       LINDEP_TOL           ILINDP              8               ***   
       LINEQ_CONV           IZTACN          10D-  7           cycles  
       LINEQ_EXPOR          ILMAXD              5               ***   
       LINEQ_MAXCY          ILMAXC            100               ***   
       LINEQ_TYPE           ILTYPE         DIIS        [  1]    ***   
       LOCK_ORBOCC          ILOCOC         OFF         [  0]    ***   
       MEMORY_SIZE          IMEMSZ         500000000           words  
       MEM_UNIT             IMEMU          INTEGERWORDS[  0]    ***   
       MRCC                 IMRCCC         OFF         [  0]    ***   
       MULTIPLICTY          IMULTP              1               ***   
       NACOUPLING           IVCOUP         OFF         [  0]    ***   
       NEGEVAL              IDIE           ABORT       [  0]    ***   
       NEWNORM              INEWNO         OFF         [  0]    ***   
       NON-HF               INONHF         OFF         [  0]    ***   
       NTOP_TAMP            ITOPT2             15               ***   
       NUC_MODEL            INUCMO         POINT       [  0]    ***   
       OCCUPATION           IOCCU   ESTIMATED BY SCF 
       OPEN-SHELL           IOPEN          SPIN-ORBITAL[  0]    ***   
       OPTVIB               IOPTVB         OFF         [  0]    ***   
       ORBITALS             IORBTP         STANDARD    [  0]    ***   
       PARALLEL             IPARAL         ON          [  1]    ***   
       PARA_INT             IPINTS         ON          [  1]    ***   
       PARA_PRINT           IPPRIN              0               ***   
       PERT_ORB             IPTORB         STANDARD    [  0]    ***   
       POINTS               IGRDFD              0               ***   
       PRINT                IPRNT               0               ***   
       PROPS                IPROPS         OFF         [  0]    ***   
       PROP_INTEGR          IINTYP         INTERNAL    [  0]    ***   
       PSI                  IPSI           OFF         [  0]    ***   
       QC_ALG               IQCALG         FLM         [  0]    ***   
       QC_LINALG            IQCLIN         TRIDIAG     [  2]    ***   
       QC_MAXCYC            IQCMAX          10D-100           cycles  
       QC_MAXSCFCY          IQCMSC          10D- 15           cycles  
       QC_RTRUST            IQCRTR          10D-  0           x 10-3  
       QC_SKIPSCF           IQCSKI         OFF         [  0]    ***   
       QC_START             IQCSTA          10D-  1             ***   
       QRHFGUESS            IQGUES         OFF         [  0]    ***   
       QUARTIC              IQUART         OFF         [  0]    ***   
       RAMAN_INT            IRAMIN         OFF         [  0]    ***   
       RAMAN_ORB            IRAMRE         UNRELAXED   [  0]    ***   
       RDO                  IRDOFM         ON          [  1]    ***   
       REDUCE_REPR          REDREP         Ir          [  0]    ***   
       REFERENCE            IREFNC         RHF         [  0]    ***   
       RELATIVIST           IRELAT         OFF         [  0]    ***   
       RELAX_DENS           IRDENS         ON          [  1]    ***   
       RESET_FLAGS          IRESET         OFF         [  0]    ***   
       RESTART_CC           ICCRES         OFF         [  0]    ***   
       ROT_EVEC             ROTVEC              0               ***   
       SAVE_INTS            ISVINT         OFF         [  0]    ***   
       SCALE_ON             ISTCRT              0               ***   
       SCF_CONV             ISCFCV          10D- 10             ***   
       SCF_DAMPING          IDAMP               0             x 10-3  
       SCF_EXPORDE          IRPPOR              6               ***   
       SCF_EXPSTAR          IRPPLS              8               ***   
       SCF_EXTRAPO          IRPP           ON          [  1]    ***   
       SCF_MAXCYC           ISCFCY            150              cycles 
       SCF_NOSTOP           ISCFST         OFF         [  0]    ***   
       SCF_PRINT            ISCFPR              0               ***   
       SCF_PROG             ISCFPR         SCF         [  0]    ***   
       SD_FIELD             IFINSD              0             x 10-6  
       SOPERT               IPERSO         OFF         [  0]    ***   
       SPHERICAL            IDFGHI         ON          [  1]    ***   
       SPINORBIT            ISOCAL         OFF         [  0]    ***   
       SPINROTATIO          ISRCON         OFF         [  0]    ***   
       SPIN_FLIP            ISPFLP         OFF         [  0]    ***   
       SPIN_ORBIT           ISPORB         OFF         [  0]    ***   
       SPIN_SCAL            ISCSMP         OFF         [  0]    ***   
       STEEPSCALE           ISTPSC              1000          x 10-3  
       SUBGROUP             ISUBGP         DEFAULT     [  0]    ***   
       SUBGRPAXIS           ISBXYZ         X           [  0]    ***   
       SYMMETRY             ISYM           ON          [  0]    ***   
       SYM_CHECK            ISYMCK         OVERRIDE    [  1]    ***   
       T3_EXTRAPOL          IT3EXT         OFF         [  0]    ***   
       T4_EXTRAPOL          IT4EXP         OFF         [  0]    ***   
       TAMP_SUM             IEVERY              5               ***   
       TESTSUITE            ITESTS         OFF         [  0]    ***   
       THERMOCH             ITHERM         OFF         [  0]    ***   
       TOL_CHOLESK          ITOLCH          10D-  4             ***   
       TRANGRAD             IRESRM         OFF         [  0]    ***   
       TRANS_INV            ITRAIN         IGNORE      [  1]    ***   
       TREAT_PERT           ITREAT         SIMULTANEOUS[  0]    ***   
       TRIP_ALGORI          ITRALG         NORMAL      [  0]    ***   
       UIJ_THRESHO          IUIJTH              1               ***   
       UNITS                IUNITS         ANGSTROM    [  0]    ***   
       UNOS                 IUNOS          OFF         [  0]    ***   
       UPDATE_HESS          IHUPDT         ON          [  1]    ***   
       VIBPHASE             ISETPH         STANDARD    [  0]    ***   
       VIBRATION            IVIB           ANALYTIC    [  1]    ***   
       VIB_ALGORIT          IGEALG         STANDARD    [  0]    ***   
       VNATORB              IVNORB         OFF         [  0]    ***   
       VTRAN                IVTRAN         FULL/PARTIAL[  0]    ***   
       XFIELD               IXEFLD              0             x 10-6  
       XFORM_TOL            IXFTOL          10D- 11             ***   
       YFIELD               IYEFLD              0             x 10-6  
       ZFIELD               IZEFLD              0             x 10-6  
       ZSCALE_EXP           IZEXPS         OFF         [  0]    ***   
    -------------------------------------------------------------------
   3 entries found in Z-matrix 
   Job Title : Hypochlorous acid DBOC calculation                                              
   There are  3 unique internal coordinates.
   Of these,  0 will be optimized.
   User supplied Z-matrix: 
--------------------------------------------------------------------------------
       SYMBOL    BOND      LENGTH    ANGLE     ANGLE     DIHED     ANGLE
                  TO      (ANGST)    WRT      (DEG)      WRT      (DEG)
--------------------------------------------------------------------------------
        O    
        H          1         ROH  
        CL         1         ROCL       2        A    
                  *Initial values for internal coordinates* 
                      Name             Value
                        ROH             0.9500000000
                        ROCL            1.6830000000
                        A             107.0000000000
--------------------------------------------------------------------------------
   Rotational constants (in cm-1): 
          0.4968328026             0.5082859228            22.0492857368
   Rotational constants (in MHz): 
      14894.6747976523         15238.0307509769        661021.0494234869
********************************************************************************
   The full molecular point group is C s .
   The largest Abelian subgroup of the full molecular point group is C s .
   The computational point group is C s .
********************************************************************************
--------------------------------------------------------------------------------
   Analysis of internal coordinates specified by Z-matrix 
--------------------------------------------------------------------------------
   *The nuclear repulsion energy is   51.380913258213994 a.u.
   *There are   3 degrees of freedom within the tot. symm. molecular subspace.
   *Z-matrix requests optimization of   0 coordinates.
   *The optimization is constrained.
   *The following   3 parameters can have non-zero 
    derivatives within the totally symmetric subspace:
             A    [ 3]  ROH  [ 1]  ROCL [ 2]
   *The following   0 parameters are to be optimized:

   *The following coordinates must be varied in an  unconstrained optimization.
             A    [ 3]  ROH  [ 1]  ROCL [ 2]
--------------------------------------------------------------------------------


 ----------------------------------------------------------------
         Coordinates used in calculation (QCOMP) 
 ----------------------------------------------------------------
 Z-matrix   Atomic            Coordinates (in bohr)
  Symbol    Number           X              Y              Z
 ----------------------------------------------------------------
     O         8        -2.12674214     0.11787525    -0.00000000
     H         1        -2.71940941    -1.57671404     0.00000000
     CL       17         1.05115681    -0.00847476     0.00000000
 ----------------------------------------------------------------
 
   Interatomic distance matrix (Angstroms) 
 
                 O             H             CL   
                [ 1]        [ 2]        [ 3]
  O    [ 1]     0.00000
  H    [ 2]     0.95000     0.00000
  CL   [ 3]     1.68300     2.16100     0.00000
 rotcon2
   Rotational constants (in cm-1): 
         22.0492857368             0.5082859228             0.4968328026
   Rotational constants (in MHz): 
     661021.0494234905         15238.0307509769         14894.6747976523
  ECPDATA file not present.   Using default ECPDATA. 
  @GTFLGS-I, Hessian will be transformed to curvilinear coordinates.
  There are  157 basis functions.
 @CHECKOUT-I, Total execution time (CPU/WALL):        0.19/       0.28 seconds.
--executable xjoda finished with status     0 in        0.33 seconds (walltime).
 --invoking executable--
/home/asmola/.local/bin/xvmol
 SERIAL VERSION OF MOLECULE STARTED
********************************************************************************
                    INPUT FROM MOL FILE
********************************************************************************
INTGRL        1    0    1    0    0    0    0    0    0                         
         *** CFOUR Program System (Release V0.1) ***                            
Hypochlorous acid DBOC calculation                                              
    3    1 Z          0.10E-08              0    0                              
   9999.00      3.00                                                            
          8.00000000    1    4    1    1    1    1                              
O #1  -2.126742138199321   0.117875253241077  -0.000000000000000                
   13    7                                                                      
   15330.0000000000       5.080000000000000E-004 -1.150000000000000E-004        
  0.000000000000000E+000  0.000000000000000E+000  0.000000000000000E+000        
  0.000000000000000E+000  0.000000000000000E+000                                
   2299.00000000000       3.929000000000000E-003 -8.950000000000000E-004        
  0.000000000000000E+000  0.000000000000000E+000  0.000000000000000E+000        
  0.000000000000000E+000  0.000000000000000E+000                                
   522.400000000000       2.024300000000000E-002 -4.636000000000000E-003        
  0.000000000000000E+000  0.000000000000000E+000  0.000000000000000E+000        
  0.000000000000000E+000  0.000000000000000E+000                                
   147.300000000000       7.918100000000000E-002 -1.872400000000000E-002        
  0.000000000000000E+000  0.000000000000000E+000  0.000000000000000E+000        
  0.000000000000000E+000  0.000000000000000E+000                                
   47.5500000000000       0.230687000000000      -5.846300000000000E-002        
  0.000000000000000E+000  0.000000000000000E+000  0.000000000000000E+000        
  0.000000000000000E+000  0.000000000000000E+000                                
   16.7600000000000       0.433118000000000      -0.136463000000000             
  0.000000000000000E+000  0.000000000000000E+000  0.000000000000000E+000        
  0.000000000000000E+000  0.000000000000000E+000                                
   6.20700000000000       0.350260000000000      -0.175740000000000             
  0.000000000000000E+000  0.000000000000000E+000  0.000000000000000E+000        
  0.000000000000000E+000  0.000000000000000E+000                                
   1.75200000000000       4.272800000000000E-002  0.160934000000000             
   1.00000000000000       0.000000000000000E+000  0.000000000000000E+000        
  0.000000000000000E+000  0.000000000000000E+000                                
  0.688200000000000      -8.154000000000000E-003  0.603418000000000             
  0.000000000000000E+000  0.000000000000000E+000  0.000000000000000E+000        
  0.000000000000000E+000  0.000000000000000E+000                                
  0.238400000000000       2.381000000000000E-003  0.378765000000000             
  0.000000000000000E+000   1.00000000000000       0.000000000000000E+000        
  0.000000000000000E+000  0.000000000000000E+000                                
   7.84500000000000       0.000000000000000E+000  0.000000000000000E+000        
  0.000000000000000E+000  0.000000000000000E+000   1.00000000000000             
  0.000000000000000E+000  0.000000000000000E+000                                
   21.0320000000000       0.000000000000000E+000  0.000000000000000E+000        
  0.000000000000000E+000  0.000000000000000E+000  0.000000000000000E+000        
   1.00000000000000       0.000000000000000E+000                                
  7.376000000000001E-002  0.000000000000000E+000  0.000000000000000E+000        
  0.000000000000000E+000  0.000000000000000E+000  0.000000000000000E+000        
  0.000000000000000E+000   1.00000000000000                                     
    8    6                                                                      
   34.4600000000000       1.592800000000000E-002  0.000000000000000E+000        
  0.000000000000000E+000  0.000000000000000E+000  0.000000000000000E+000        
  0.000000000000000E+000                                                        
   7.74900000000000       9.974000000000000E-002  0.000000000000000E+000        
  0.000000000000000E+000  0.000000000000000E+000  0.000000000000000E+000        
  0.000000000000000E+000                                                        
   2.28000000000000       0.310492000000000       0.000000000000000E+000        
  0.000000000000000E+000  0.000000000000000E+000  0.000000000000000E+000        
  0.000000000000000E+000                                                        
  0.715600000000000       0.491026000000000        1.00000000000000             
  0.000000000000000E+000  0.000000000000000E+000  0.000000000000000E+000        
  0.000000000000000E+000                                                        
  0.214000000000000       0.336337000000000       0.000000000000000E+000        
   1.00000000000000       0.000000000000000E+000  0.000000000000000E+000        
  0.000000000000000E+000                                                        
   15.1590000000000       0.000000000000000E+000  0.000000000000000E+000        
  0.000000000000000E+000   1.00000000000000       0.000000000000000E+000        
  0.000000000000000E+000                                                        
   57.4370000000000       0.000000000000000E+000  0.000000000000000E+000        
  0.000000000000000E+000  0.000000000000000E+000   1.00000000000000             
  0.000000000000000E+000                                                        
  5.974000000000000E-002  0.000000000000000E+000  0.000000000000000E+000        
  0.000000000000000E+000  0.000000000000000E+000  0.000000000000000E+000        
   1.00000000000000                                                             
    4    4                                                                      
   2.31400000000000        1.00000000000000       0.000000000000000E+000        
  0.000000000000000E+000  0.000000000000000E+000                                
  0.645000000000000       0.000000000000000E+000   1.00000000000000             
  0.000000000000000E+000  0.000000000000000E+000                                
   15.8580000000000       0.000000000000000E+000  0.000000000000000E+000        
   1.00000000000000       0.000000000000000E+000                                
  0.214000000000000       0.000000000000000E+000  0.000000000000000E+000        
  0.000000000000000E+000   1.00000000000000                                     
    2    2                                                                      
   1.42800000000000        1.00000000000000       0.000000000000000E+000        
  0.500000000000000       0.000000000000000E+000   1.00000000000000             
          1.00000000    1    3    1    1    1                                   
H #2  -2.719409406543322  -1.576714037845162   0.000000000000002                
    6    4                                                                      
   33.8700000000000       6.068000000000000E-003  0.000000000000000E+000        
  0.000000000000000E+000  0.000000000000000E+000                                
   5.09500000000000       4.530800000000000E-002  0.000000000000000E+000        
  0.000000000000000E+000  0.000000000000000E+000                                
   1.15900000000000       0.202822000000000       0.000000000000000E+000        
  0.000000000000000E+000  0.000000000000000E+000                                
  0.325800000000000       0.503903000000000        1.00000000000000             
  0.000000000000000E+000  0.000000000000000E+000                                
  0.102700000000000       0.383421000000000       0.000000000000000E+000        
   1.00000000000000       0.000000000000000E+000                                
  2.526000000000000E-002  0.000000000000000E+000  0.000000000000000E+000        
  0.000000000000000E+000   1.00000000000000                                     
    3    3                                                                      
   1.40700000000000        1.00000000000000       0.000000000000000E+000        
  0.000000000000000E+000                                                        
  0.388000000000000       0.000000000000000E+000   1.00000000000000             
  0.000000000000000E+000                                                        
  0.102000000000000       0.000000000000000E+000  0.000000000000000E+000        
   1.00000000000000                                                             
    2    2                                                                      
   1.05700000000000        1.00000000000000       0.000000000000000E+000        
  0.247000000000000       0.000000000000000E+000   1.00000000000000             
         17.00000000    1    4    1    1    1    1                              
CL#3   1.051156814154682  -0.008474762800165   0.000000000000000                
   18    8                                                                      
   456100.000000000       4.930000000000000E-005 -1.380000000000000E-005        
  4.200000000000000E-006  0.000000000000000E+000  0.000000000000000E+000        
  0.000000000000000E+000  0.000000000000000E+000  0.000000000000000E+000        
   68330.0000000000       3.830000000000000E-004 -1.073000000000000E-004        
  3.240000000000000E-005  0.000000000000000E+000  0.000000000000000E+000        
  0.000000000000000E+000  0.000000000000000E+000  0.000000000000000E+000        
   15550.0000000000       2.008500000000000E-003 -5.651000000000000E-004        
  1.711000000000000E-004  0.000000000000000E+000  0.000000000000000E+000        
  0.000000000000000E+000  0.000000000000000E+000  0.000000000000000E+000        
   4405.00000000000       8.385600000000000E-003 -2.361400000000000E-003        
  7.142000000000000E-004  0.000000000000000E+000  0.000000000000000E+000        
  0.000000000000000E+000  0.000000000000000E+000  0.000000000000000E+000        
   1439.00000000000       2.947030000000000E-002 -8.458900000000000E-003        
  2.567000000000000E-003  0.000000000000000E+000  0.000000000000000E+000        
  0.000000000000000E+000  0.000000000000000E+000  0.000000000000000E+000        
   520.400000000000       8.783249999999999E-002 -2.596380000000000E-002        
  7.885500000000000E-003  0.000000000000000E+000  0.000000000000000E+000        
  0.000000000000000E+000  0.000000000000000E+000  0.000000000000000E+000        
   203.100000000000       0.211473000000000      -6.863619999999999E-002        
  2.108670000000000E-002  0.000000000000000E+000  0.000000000000000E+000        
  0.000000000000000E+000  0.000000000000000E+000  0.000000000000000E+000        
   83.9600000000000       0.365364000000000      -0.141874000000000             
  4.422640000000000E-002  0.000000000000000E+000  0.000000000000000E+000        
  0.000000000000000E+000  0.000000000000000E+000  0.000000000000000E+000        
   36.2000000000000       0.340884000000000      -0.199319000000000             
  6.516700000000000E-002  0.000000000000000E+000  0.000000000000000E+000        
  0.000000000000000E+000  0.000000000000000E+000  0.000000000000000E+000        
   15.8300000000000       0.102133000000000      -1.956620000000000E-002        
  6.030100000000000E-003  0.000000000000000E+000  0.000000000000000E+000        
  0.000000000000000E+000  0.000000000000000E+000  0.000000000000000E+000        
   6.33400000000000       3.116800000000000E-003  0.499741000000000             
 -0.206495000000000       0.000000000000000E+000  0.000000000000000E+000        
  0.000000000000000E+000  0.000000000000000E+000  0.000000000000000E+000        
   2.69400000000000       1.057500000000000E-003  0.563736000000000             
 -0.405871000000000       0.000000000000000E+000  0.000000000000000E+000        
  0.000000000000000E+000  0.000000000000000E+000  0.000000000000000E+000        
  0.976800000000000      -3.780000000000000E-004  7.903250000000001E-002        
  7.595580000000000E-002   1.00000000000000       0.000000000000000E+000        
  0.000000000000000E+000  0.000000000000000E+000  0.000000000000000E+000        
  0.431300000000000       1.561000000000000E-004 -8.350900000000000E-003        
  0.725661000000000       0.000000000000000E+000  0.000000000000000E+000        
  0.000000000000000E+000  0.000000000000000E+000  0.000000000000000E+000        
  0.162500000000000      -5.140000000000000E-005  2.324600000000000E-003        
  0.394423000000000       0.000000000000000E+000   1.00000000000000             
  0.000000000000000E+000  0.000000000000000E+000  0.000000000000000E+000        
   15.0640000000000       0.000000000000000E+000  0.000000000000000E+000        
  0.000000000000000E+000  0.000000000000000E+000  0.000000000000000E+000        
   1.00000000000000       0.000000000000000E+000  0.000000000000000E+000        
   2.87400000000000       0.000000000000000E+000  0.000000000000000E+000        
  0.000000000000000E+000  0.000000000000000E+000  0.000000000000000E+000        
  0.000000000000000E+000   1.00000000000000       0.000000000000000E+000        
  5.910000000000000E-002  0.000000000000000E+000  0.000000000000000E+000        
  0.000000000000000E+000  0.000000000000000E+000  0.000000000000000E+000        
  0.000000000000000E+000  0.000000000000000E+000   1.00000000000000             
   12    7                                                                      
   663.300000000000       2.404500000000000E-003 -6.521000000000000E-004        
  0.000000000000000E+000  0.000000000000000E+000  0.000000000000000E+000        
  0.000000000000000E+000  0.000000000000000E+000                                
   156.800000000000       1.921480000000000E-002 -5.194500000000000E-003        
  0.000000000000000E+000  0.000000000000000E+000  0.000000000000000E+000        
  0.000000000000000E+000  0.000000000000000E+000                                
   49.9800000000000       8.850970000000000E-002 -2.469380000000000E-002        
  0.000000000000000E+000  0.000000000000000E+000  0.000000000000000E+000        
  0.000000000000000E+000  0.000000000000000E+000                                
   18.4200000000000       0.256020000000000      -7.281670000000000E-002        
  0.000000000000000E+000  0.000000000000000E+000  0.000000000000000E+000        
  0.000000000000000E+000  0.000000000000000E+000                                
   7.24000000000000       0.436927000000000      -0.134030000000000             
  0.000000000000000E+000  0.000000000000000E+000  0.000000000000000E+000        
  0.000000000000000E+000  0.000000000000000E+000                                
   2.92200000000000       0.350334000000000      -9.477420000000000E-002        
  0.000000000000000E+000  0.000000000000000E+000  0.000000000000000E+000        
  0.000000000000000E+000  0.000000000000000E+000                                
   1.02200000000000       5.854950000000000E-002  0.262289000000000             
   1.00000000000000       0.000000000000000E+000  0.000000000000000E+000        
  0.000000000000000E+000  0.000000000000000E+000                                
  0.381800000000000      -4.584200000000000E-003  0.564667000000000             
  0.000000000000000E+000  0.000000000000000E+000  0.000000000000000E+000        
  0.000000000000000E+000  0.000000000000000E+000                                
  0.130100000000000       2.269700000000000E-003  0.341250000000000             
  0.000000000000000E+000   1.00000000000000       0.000000000000000E+000        
  0.000000000000000E+000  0.000000000000000E+000                                
   9.48000000000000       0.000000000000000E+000  0.000000000000000E+000        
  0.000000000000000E+000  0.000000000000000E+000   1.00000000000000             
  0.000000000000000E+000  0.000000000000000E+000                                
   3.66800000000000       0.000000000000000E+000  0.000000000000000E+000        
  0.000000000000000E+000  0.000000000000000E+000  0.000000000000000E+000        
   1.00000000000000       0.000000000000000E+000                                
  4.190000000000000E-002  0.000000000000000E+000  0.000000000000000E+000        
  0.000000000000000E+000  0.000000000000000E+000  0.000000000000000E+000        
  0.000000000000000E+000   1.00000000000000                                     
    5    5                                                                      
   1.04600000000000        1.00000000000000       0.000000000000000E+000        
  0.000000000000000E+000  0.000000000000000E+000  0.000000000000000E+000        
  0.344000000000000       0.000000000000000E+000   1.00000000000000             
  0.000000000000000E+000  0.000000000000000E+000  0.000000000000000E+000        
   17.9570000000000       0.000000000000000E+000  0.000000000000000E+000        
   1.00000000000000       0.000000000000000E+000  0.000000000000000E+000        
   5.76000000000000       0.000000000000000E+000  0.000000000000000E+000        
  0.000000000000000E+000   1.00000000000000       0.000000000000000E+000        
  0.135000000000000       0.000000000000000E+000  0.000000000000000E+000        
  0.000000000000000E+000  0.000000000000000E+000   1.00000000000000             
    3    3                                                                      
  0.706000000000000        1.00000000000000       0.000000000000000E+000        
  0.000000000000000E+000                                                        
   11.7790000000000       0.000000000000000E+000   1.00000000000000             
  0.000000000000000E+000                                                        
  0.312000000000000       0.000000000000000E+000  0.000000000000000E+000        
   1.00000000000000                                                             
FINISH                                                                          
 
********************************************************************************
 ONE- AND TWO-ELECTRON INTEGRALS OVER SYMMETRY-ADAPTED AOS ARE CALCULATED.

  SPHERICAL HARMONICS ARE USED.
  
  INTEGRALS LESS THAN  0.10E-13 ARE NEGLECTED.

  NUCLEAR REPULSION ENERGY :   51.3809132582 A.U.
  @MOLECU-I, ONE ELECTRON INTEGRALS (CPU/WALL):        0.04/       0.05 SECONDS.
  @TWOEL-I,   14245583 INTEGRALS OF SYMMETRY TYPE  I I I I
  @TWOEL-I,   13484488 INTEGRALS OF SYMMETRY TYPE  I J I J
  @TWOEL-I,    6953966 INTEGRALS OF SYMMETRY TYPE  I I J J
  @TWOEL-I, TOTAL NUMBER OF 2-E INTEGRALS   34684037.
  @MOLECU-I, TWO ELECTRON INTEGRALS (CPU/WALL):       63.68/       9.62 SECONDS.
 @CHECKOUT-I, Total execution time (CPU/WALL):       63.74/       9.69 seconds.

Running with 14 threads/proc

--executable xvmol finished with status     0 in        9.73 seconds (walltime).
 --invoking executable--
/home/asmola/.local/bin/xvmol2ja
 @GETMEM-I,  Allocated    3814 MB of main memory.
 @CHECKOUT-I, Total execution time (CPU/WALL):        0.09/       0.03 seconds.
--executable xvmol2ja finished with status     0 in        0.07 seconds (walltime).
 --invoking executable--
/home/asmola/.local/bin/xvscf
  There are  157 functions in the AO basis.

  There are 2 irreducible representations.

       Irrep        # of functions
         1                104
         2                 53


  Parameters for SCF calculation: 
        SCF reference function:  RHF  
  Maximum number of iterations:  150
     Full symmetry point group: C s 
     Computational point group: C s 
        Initial density matrix: MOREAD                 
     SCF convergence tolerance: 10**(-10)
  DIIS convergence acceleration:  ON
          Latest start for DIIS:   8
                     DIIS order:   6

  Memory information:    1209746 words required.
  Fock matrices are constructed from AO integral file.
 @GETMEM-I,  Allocated       9 MB of main memory.
  Initialization and symmetry analysis required      0.002 seconds.

  @INITGES-I, Occupancies from core Hamiltonian:

          Alpha population by irrep:  10    3
           Beta population by irrep:  10    3


 total no. of electrons in initial guess :  0.000000000000000E+000
  --------------------------------------------------------------------
  Iteration         Total Energy            Largest Density Difference
  --------------------------------------------------------------------
       0            51.380913258213980              0.0000000000D+00
   current occupation vector 
    10  3
    10  3
       1          -365.159044608000613              0.1325963214D+02
   current occupation vector 
    10  3
    10  3
       2          -338.487763752653962              0.1324540877D+02
   current occupation vector 
    10  3
    10  3
       3          -421.026447306565217              0.1074670912D+02
   current occupation vector 
    10  3
    10  3
       4          -336.338018613262875              0.1074915698D+02
   current occupation vector 
    10  3
    10  3
       5          -420.793260094493235              0.1068862931D+02
   current occupation vector 
    10  3
    10  3
       6          -336.235704914876806              0.1068841227D+02
   current occupation vector 
    10  3
    10  3
       7          -420.774066393966677              0.1068348959D+02
   current occupation vector 
    10  3
    10  3
       8          -336.227664548508926              0.1068346799D+02
   current occupation vector 
    10  3
    10  3
       9          -446.445488881404572              0.8201691658D+01
   current occupation vector 
    10  3
    10  3
      10          -466.093306673934251              0.2161456846D+01
   current occupation vector 
    10  3
    10  3
      11          -474.807654094242992              0.1086810458D+01
   current occupation vector 
    10  3
    10  3
      12          -477.201701027291904              0.3098295201D+00
   current occupation vector 
    10  3
    10  3
      13          -478.004624921228981              0.1069160121D+00
   current occupation vector 
    10  3
    10  3
      14          -483.020495969055844              0.6678040001D+00
   current occupation vector 
    10  3
    10  3
      15          -505.955779632681754              0.7598684394D+01
   current occupation vector 
    10  3
    10  3
      16          -521.323333006133453              0.7598127633D+01
   current occupation vector 
    11  2
    11  2
      17          -526.085501060151728              0.4429971118D+01
   current occupation vector 
    11  2
    11  2
      18          -533.556307425588784              0.3153022059D+01
   current occupation vector 
    10  3
    10  3
      19          -534.681949172855639              0.8248978592D+00
   current occupation vector 
    10  3
    10  3
      20          -534.907778575992324              0.3483720194D+00
   current occupation vector 
    10  3
    10  3
      21          -534.922203613127749              0.1595723751D+00
   current occupation vector 
    10  3
    10  3
      22          -534.924262001695070              0.4467678686D-01
   current occupation vector 
    10  3
    10  3
      23          -534.924759889239795              0.3097325858D-01
   current occupation vector 
    10  3
    10  3
      24          -534.924808083525704              0.9156078477D-02
   current occupation vector 
    10  3
    10  3
      25          -534.924817490722717              0.4346626324D-02
   current occupation vector 
    10  3
    10  3
      26          -534.924818302053609              0.9954854935D-03
   current occupation vector 
    10  3
    10  3
      27          -534.924818409783029              0.4417976111D-03
   current occupation vector 
    10  3
    10  3
      28          -534.924818432988786              0.2823118482D-03
   current occupation vector 
    10  3
    10  3
      29          -534.924818433615656              0.4461791517D-04
   current occupation vector 
    10  3
    10  3
      30          -534.924818433654536              0.1072541280D-04
   current occupation vector 
    10  3
    10  3
      31          -534.924818433663177              0.2033169006D-05
   current occupation vector 
    10  3
    10  3
      32          -534.924818433657720              0.7228897381D-06
   current occupation vector 
    10  3
    10  3
      33          -534.924818433657720              0.2660835184D-06
   current occupation vector 
    10  3
    10  3
      34          -534.924818433656128              0.9447219151D-07
   current occupation vector 
    10  3
    10  3
      35          -534.924818433653854              0.5304419703D-07
   current occupation vector 
    10  3
    10  3
      36          -534.924818433656583              0.2827529014D-07
   current occupation vector 
    10  3
    10  3
      37          -534.924818433660448              0.1489146254D-07
   current occupation vector 
    10  3
    10  3
      38          -534.924818433658174              0.6063086644D-08
   current occupation vector 
    10  3
    10  3
      39          -534.924818433658174              0.1241237446D-08
   current occupation vector 
    10  3
    10  3
      40          -534.924818433657265              0.5923370683D-09
   current occupation vector 
    10  3
    10  3
      41          -534.924818433659993              0.2507430652D-09
   current occupation vector 
    10  3
    10  3

  SCF has converged.

 Density matrix saved to file den.dat
 total electron number:   26.0000000000002     
     E(SCF)=      -534.924818433654991              0.4995603931D-10

  Eigenvector printing suppressed.

 @PUTMOS-I, Writing converged MOs to NEWMOS. 
 @PUTMOS-I, Symmetry   1 Full Blocks 26 Partial Blocksize   0
 @PUTMOS-I, Symmetry   2 Full Blocks 13 Partial Blocksize   1
 @PUTFOCK-I, Writing converged Fock matrix to NEWFOCK. 
 @PUTFOCK-I, Symmetry   1 Full Blocks 26 Partial Blocksize   0
 @PUTFOCK-I, Symmetry   2 Full Blocks 13 Partial Blocksize   1


 
  ORBITAL EIGENVALUES (ALPHA)  (1H = 27.2113834 eV)

       MO #        E(hartree)               E(eV)           FULLSYM    COMPSYM
       ----   --------------------   --------------------   -------   ---------
    1     1        -104.8919378876       -2854.2547374279     A'        A'  (1)
    2     2         -20.6391282540        -561.6192319623     A'        A'  (1)
    3     3         -10.6118026484        -288.7618304314     A'        A'  (1)
    4     4          -8.0785307815        -219.8279984039     A'        A'  (1)
    5     5          -8.0761804717        -219.7640432228     A'        A'  (1)
    6   105          -8.0760299253        -219.7599466464     A''       A'' (2)
    7     6          -1.4164478490         -38.5435054859     A'        A'  (1)
    8     7          -1.0645618861         -28.9682016357     A'        A'  (1)
    9     8          -0.7264506474         -19.7677270867     A'        A'  (1)
   10   106          -0.6145760992         -16.7234658625     A''       A'' (2)
   11     9          -0.6056246498         -16.4798845416     A'        A'  (1)
   12    10          -0.4680218509         -12.7355220239     A'        A'  (1)
   13   107          -0.4435636950         -12.0699817668     A''       A'' (2)
  +++++++++++++++++++++++++++++++++++++++++++++++++++++++++++++++++++++++++++++
   14    11           0.0286766434           0.7803311395     A'        A'  (1)
   15    12           0.0624008652           1.6980138686     A'        A'  (1)
   16    13           0.1099723258           2.9924991207     A'        A'  (1)
   17   108           0.1158775758           3.1531891424     A''       A'' (2)
   18    14           0.1406163730           3.8263660373     A'        A'  (1)
   19    15           0.1580226825           4.3000157988     A'        A'  (1)
   20    16           0.1725797851           4.6961347000     A'        A'  (1)
   21    17           0.1779444138           4.8421136668     A'        A'  (1)
   22   109           0.1878434179           5.1114792646     A''       A'' (2)
   23    18           0.2449964858           6.6666933062     A'        A'  (1)
   24   110           0.2599171376           7.0727048829     A''       A'' (2)
   25    19           0.3075992478           8.3702010664     A'        A'  (1)
   26    20           0.3212204124           8.7408517988     A'        A'  (1)
   27   111           0.3837328890          10.4419027651     A''       A'' (2)
   28    21           0.3917562153          10.6602285732     A'        A'  (1)
   29   112           0.4199244689          11.4267257232     A''       A'' (2)
   30    22           0.4262435154          11.5986757189     A'        A'  (1)
   31    23           0.4456241278          12.1260489932     A'        A'  (1)
   32    24           0.5014375236          13.6448087051     A'        A'  (1)
   33    25           0.6083876837          16.5550705170     A'        A'  (1)
   34   113           0.6125002657          16.6669795620     A''       A'' (2)
   35    26           0.6797276046          18.4963284567     A'        A'  (1)
   36    27           0.7039571135          19.1556469123     A'        A'  (1)
   37   114           0.7122967802          19.3825807803     A''       A'' (2)
   38    28           0.7191101577          19.5679822092     A'        A'  (1)
   39   115           0.7679512977          20.8970171950     A''       A'' (2)
   40    29           0.7787657105          21.1912923265     A'        A'  (1)
   41    30           0.8717470474          23.7214431335     A'        A'  (1)
   42   116           0.8845390910          24.0695323363     A''       A'' (2)
   43    31           0.8879040135          24.1610965337     A'        A'  (1)
   44   117           0.9029480660          24.5704660145     A''       A'' (2)
   45    32           0.9149357908          24.8966685887     A'        A'  (1)
   46   118           0.9189322258          25.0054171149     A''       A'' (2)
   47    33           0.9306663303          25.3247183321     A'        A'  (1)
   48    34           0.9601009725          26.1256756666     A'        A'  (1)
   49    35           1.0005080875          27.2252091631     A'        A'  (1)
   50   119           1.0093939670          27.4670062375     A''       A'' (2)
   51    36           1.0174609585          27.6865202353     A'        A'  (1)
   52    37           1.1172459136          30.4018069066     A'        A'  (1)
   53   120           1.1258376545          30.6356000635     A''       A'' (2)
   54   121           1.2225988767          33.2686067795     A''       A'' (2)
   55    38           1.2342772120          33.5863904388     A'        A'  (1)
   56    39           1.2778058781          34.7708656602     A'        A'  (1)
   57    40           1.3427830004          36.5389830458     A'        A'  (1)
   58    41           1.3831840813          37.6383523490     A'        A'  (1)
   59   122           1.4111052370          38.3981256213     A''       A'' (2)
   60   123           1.5113979770          41.1272298214     A''       A'' (2)
   61   124           1.5481211958          42.1265194077     A''       A'' (2)
   62    42           1.5707645560          42.7426765656     A'        A'  (1)
   63    43           1.6725299817          45.5118545791     A'        A'  (1)
   64    44           1.7101400133          46.5352755704     A'        A'  (1)
   65    45           1.8174839672          49.4562530541     A'        A'  (1)
   66    46           2.0031525265          54.5085514065     A'        A'  (1)
   67   125           2.1736712867          59.1486027691     A''       A'' (2)
   68    47           2.2370737323          60.8738710227     A'        A'  (1)
   69   126           2.2568458632          61.4118980582     A''       A'' (2)
   70    48           2.2968040427          62.4992154009     A'        A'  (1)
   71    49           2.3215758693          63.1732910706     A'        A'  (1)
   72   127           2.3255052049          63.2802137299     A''       A'' (2)
   73    50           2.3697767009          64.4849023795     A'        A'  (1)
   74    51           2.4197190148          65.8439018324     A'        A'  (1)
   75   128           2.4531166847          66.7526986324     A''       A'' (2)
   76    52           2.4609299343          66.9653079636     A'        A'  (1)
   77   129           2.4768199091          67.3976961585     A''       A'' (2)
   78   130           2.4892702466          67.7364870675     A''       A'' (2)
   79    53           2.5011332139          68.0592948170     A'        A'  (1)
   80    54           2.5168577762          68.4871819105     A'        A'  (1)
   81   131           2.7438323812          74.6634749096     A''       A'' (2)
   82    55           2.7858840240          75.8077582850     A'        A'  (1)
   83   132           2.8951762436          78.7817507744     A''       A'' (2)
   84    56           2.9427347614          80.0758838360     A'        A'  (1)
   85    57           2.9699886675          80.8175003252     A'        A'  (1)
   86   133           3.0556187407          83.1476130783     A''       A'' (2)
   87    58           3.0678364749          83.4800745264     A'        A'  (1)
   88    59           3.1266926213          85.0816316931     A'        A'  (1)
   89   134           3.1336009260          85.2696162201     A''       A'' (2)
   90    60           3.2653217399          88.8539217890     A'        A'  (1)
   91    61           3.3212639449          90.3761865784     A'        A'  (1)
   92   135           3.3679575118          91.6467831285     A''       A'' (2)
   93    62           3.4745852004          94.5482700445     A'        A'  (1)
   94    63           3.7544897840         102.1648609837     A'        A'  (1)
   95    64           3.8365411989         104.3975934926     A'        A'  (1)
   96   136           4.0980513752         111.5136471626     A''       A'' (2)
   97   137           4.1467668984         112.8392639434     A''       A'' (2)
   98   138           4.3489650177         118.3413544898     A''       A'' (2)
   99    65           4.3708714119         118.9374577825     A'        A'  (1)
  100    66           4.5642331665         124.1990986203     A'        A'  (1)
  101    67           4.7043441311         128.0117117976     A'        A'  (1)
  102    68           4.8700229262         132.5200610113     A'        A'  (1)
  103    69           5.1374411368         139.7968804671     A'        A'  (1)
  104   139           5.2987525683         144.1863876767     A''       A'' (2)
  105    70           5.5217823507         150.2553365950     A'        A'  (1)
  106    71           5.8278716671         158.5844503401     A'        A'  (1)
  107    72           6.2897033541         171.1515294407     A'        A'  (1)
  108   140           6.6485468420         180.9161571701     A''       A'' (2)
  109    73           6.6959333654         182.2056100266     A'        A'  (1)
  110   141           6.7395274110         183.3918643165     A''       A'' (2)
  111    74           6.7852526953         184.6361125588     A'        A'  (1)
  112   142           7.1357186628         194.1727763684     A''       A'' (2)
  113   143           7.2073813903         196.1228183223     A''       A'' (2)
  114    75           7.2237495979         196.5682198931     A'        A'  (1)
  115    76           7.2714913051         197.8673377933     A'        A'  (1)
  116   144           7.2729789015         197.9078173488     A''       A'' (2)
  117    77           7.6091552809         207.0556416984     A'        A'  (1)
  118    78           7.8286428273         213.0282014751     A'        A'  (1)
  119    79           8.8317138770         240.3231523865     A'        A'  (1)
  120   145          10.3487397931         281.6035262155     A''       A'' (2)
  121    80          10.3489279001         281.6086448680     A'        A'  (1)
  122   146          10.3867115087         282.6367891280     A''       A'' (2)
  123    81          10.4420914587         284.1437541813     A'        A'  (1)
  124    82          10.6267052221         289.1673500786     A'        A'  (1)
  125   147          12.6788502026         345.0090539354     A''       A'' (2)
  126    83          12.7337193487         346.5021193056     A'        A'  (1)
  127    84          13.2275075444         359.9387792174     A'        A'  (1)
  128    85          18.2749831564         497.2875732974     A'        A'  (1)
  129   148          26.2084913873         713.1693074755     A''       A'' (2)
  130    86          26.6269331440         724.5556865464     A'        A'  (1)
  131    87          27.2169626462         740.6112055485     A'        A'  (1)
  132    88          29.1471254213         793.1336048456     A'        A'  (1)
  133   149          36.8941501339        1003.9408645120     A''       A'' (2)
  134    89          36.8945675590        1003.9522232239     A'        A'  (1)
  135   150          36.8945795527        1003.9525495917     A''       A'' (2)
  136    90          36.8991670200        1004.0773809219     A'        A'  (1)
  137   151          36.9033060901        1004.1900107446     A''       A'' (2)
  138    91          36.9035101611        1004.1955637985     A'        A'  (1)
  139    92          36.9074299825        1004.3022275622     A'        A'  (1)
  140   152          43.9166310308        1195.0322846161     A''       A'' (2)
  141    93          43.9449529938        1195.8029644085     A'        A'  (1)
  142   153          43.9658703372        1196.3721542605     A''       A'' (2)
  143    94          44.1087819209        1200.2609761558     A'        A'  (1)
  144    95          44.2738414566        1204.7524744663     A'        A'  (1)
  145   154          46.4816687066        1264.8305082474     A''       A'' (2)
  146    96          46.4817696067        1264.8332538790     A'        A'  (1)
  147   155          46.5062729575        1265.5000239512     A''       A'' (2)
  148    97          46.5357626116        1266.3024782363     A'        A'  (1)
  149    98          46.6244720268        1268.7163841438     A'        A'  (1)
  150   156          55.0184778156        1497.1288939242     A''       A'' (2)
  151    99          55.0789524483        1498.7744923423     A'        A'  (1)
  152   100          55.6544933131        1514.4357554742     A'        A'  (1)
  153   101         103.8653718500        2826.3204553949     A'        A'  (1)
  154   157         138.3374795425        3764.3541944210     A''       A'' (2)
  155   102         138.6353366030        3772.4592970930     A'        A'  (1)
  156   103         139.1254449449        3785.7958230920     A'        A'  (1)
  157   104         149.9758713722        4081.0509366575     A'        A'  (1)


  VSCF finished.

 @CHECKOUT-I, Total execution time (CPU/WALL):       68.73/      13.36 seconds.
--executable xvscf finished with status     0 in       13.40 seconds (walltime).
 --invoking executable--
/home/asmola/.local/bin/xvtran
 @GETMEM-I,  Allocated    3814 MB of main memory.
  Full RHF integral transformation
  Transformation of IIII integrals :
  1 pass through the AO integral file was required.
    14245583 AO integrals were read.
    15933126 MO integrals were written to HF2.
  Transformation of IIJJ integrals :
  1 pass through the AO integral file was required.
     6953966 AO integrals were read.
     7813260 MO integrals were written to HF2.
  Transformation of IJIJ integrals :
  1 pass through the AO integral file was required.
    13484488 AO integrals were read.
    15193828 MO integrals were written to HF2.
  Summary of active molecular orbitals: 
------------------------------------------------------------------------
 
  Index      Eigenvalue    Symmetry    Index      Eigenvalue    Symmetry
------------------------------------------------------------------------
     1      -104.8919379        1        80         7.6091553        1
     2       -20.6391283        1        81         7.8286428        1
     3       -10.6118026        1        82         8.8317139        1
     4        -8.0785308        1        83        10.3489279        1
     5        -8.0761805        1        84        10.4420915        1
     6        -1.4164478        1        85        10.6267052        1
     7        -1.0645619        1        86        12.7337193        1
     8        -0.7264506        1        87        13.2275075        1
     9        -0.6056246        1        88        18.2749832        1
    10        -0.4680219        1        89        26.6269331        1
    11        -8.0760299        2        90        27.2169626        1
    12        -0.6145761        2        91        29.1471254        1
    13        -0.4435637        2        92        36.8945676        1
    14         0.0286766        1        93        36.8991670        1
    15         0.0624009        1        94        36.9035102        1
    16         0.1099723        1        95        36.9074300        1
    17         0.1406164        1        96        43.9449530        1
    18         0.1580227        1        97        44.1087819        1
    19         0.1725798        1        98        44.2738415        1
    20         0.1779444        1        99        46.4817696        1
    21         0.2449965        1       100        46.5357626        1
    22         0.3075992        1       101        46.6244720        1
    23         0.3212204        1       102        55.0789524        1
    24         0.3917562        1       103        55.6544933        1
    25         0.4262435        1       104       103.8653719        1
    26         0.4456241        1       105       138.6353366        1
    27         0.5014375        1       106       139.1254449        1
    28         0.6083877        1       107       149.9758714        1
    29         0.6797276        1       108         0.1158776        2
    30         0.7039571        1       109         0.1878434        2
    31         0.7191102        1       110         0.2599171        2
    32         0.7787657        1       111         0.3837329        2
    33         0.8717470        1       112         0.4199245        2
    34         0.8879040        1       113         0.6125003        2
    35         0.9149358        1       114         0.7122968        2
    36         0.9306663        1       115         0.7679513        2
    37         0.9601010        1       116         0.8845391        2
    38         1.0005081        1       117         0.9029481        2
    39         1.0174610        1       118         0.9189322        2
    40         1.1172459        1       119         1.0093940        2
    41         1.2342772        1       120         1.1258377        2
    42         1.2778059        1       121         1.2225989        2
    43         1.3427830        1       122         1.4111052        2
    44         1.3831841        1       123         1.5113980        2
    45         1.5707646        1       124         1.5481212        2
    46         1.6725300        1       125         2.1736713        2
    47         1.7101400        1       126         2.2568459        2
    48         1.8174840        1       127         2.3255052        2
    49         2.0031525        1       128         2.4531167        2
    50         2.2370737        1       129         2.4768199        2
    51         2.2968040        1       130         2.4892702        2
    52         2.3215759        1       131         2.7438324        2
    53         2.3697767        1       132         2.8951762        2
    54         2.4197190        1       133         3.0556187        2
    55         2.4609299        1       134         3.1336009        2
    56         2.5011332        1       135         3.3679575        2
    57         2.5168578        1       136         4.0980514        2
    58         2.7858840        1       137         4.1467669        2
    59         2.9427348        1       138         4.3489650        2
    60         2.9699887        1       139         5.2987526        2
    61         3.0678365        1       140         6.6485468        2
    62         3.1266926        1       141         6.7395274        2
    63         3.2653217        1       142         7.1357187        2
    64         3.3212639        1       143         7.2073814        2
    65         3.4745852        1       144         7.2729789        2
    66         3.7544898        1       145        10.3487398        2
    67         3.8365412        1       146        10.3867115        2
    68         4.3708714        1       147        12.6788502        2
    69         4.5642332        1       148        26.2084914        2
    70         4.7043441        1       149        36.8941501        2
    71         4.8700229        1       150        36.8945796        2
    72         5.1374411        1       151        36.9033061        2
    73         5.5217824        1       152        43.9166310        2
    74         5.8278717        1       153        43.9658703        2
    75         6.2897034        1       154        46.4816687        2
    76         6.6959334        1       155        46.5062730        2
    77         6.7852527        1       156        55.0184778        2
    78         7.2237496        1       157       138.3374795        2
    79         7.2714913        1
------------------------------------------------------------------------
  -104.891937887579       -20.6391282540330       -10.6118026484222     
  -8.07853078149341       -8.07618047169055       -1.41644784902382     
  -1.06456188609924      -0.726450647367289      -0.605624649776876     
 -0.468021850882264       -8.07602992527161      -0.614576099152699     
 -0.443563694992694       2.867664344899157E-002  6.240086524273886E-002
  0.109972325799062       0.140616372971945       0.158022682479171     
  0.172579785121367       0.177944413763881       0.244996485780996     
  0.307599247833801       0.321220412438122       0.391756215276661     
  0.426243515383085       0.445624127777498       0.501437523573542     
  0.608387683699511       0.679727604614256       0.703957113488661     
  0.719110157745312       0.778765710475753       0.871747047358771     
  0.887904013497629       0.914935790759409       0.930666330331480     
  0.960100972544982        1.00050808747500        1.01746095846291     
   1.11724591358272        1.23427721204312        1.27780587811713     
   1.34278300035905        1.38318408129950        1.57076455604102     
   1.67252998166446        1.71014001332826        1.81748396717235     
   2.00315252647175        2.23707373226536        2.29680404271118     
   2.32157586925764        2.36977670085997        2.41971901481467     
   2.46092993433205        2.50113321386587        2.51685777616648     
   2.78588402400101        2.94273476136416        2.96998866750646     
   3.06783647487738        3.12669262133440        3.26532173990813     
   3.32126394494186        3.47458520041671        3.75448978399553     
   3.83654119887819        4.37087141194427        4.56423316648962     
   4.70434413112628        4.87002292618969        5.13744113675413     
   5.52178235065452        5.82787166712205        6.28970335409912     
   6.69593336539502        6.78525269534091        7.22374959786525     
   7.27149130511848        7.60915528089061        7.82864282729028     
   8.83171387701355        10.3489279000795        10.4420914587260     
   10.6267052221476        12.7337193487050        13.2275075444120     
   18.2749831564033        26.6269331439585        27.2169626461729     
   29.1471254212539        36.8945675589541        36.8991670200014     
   36.9035101610643        36.9074299824916        43.9449529937735     
   44.1087819208699        44.2738414565969        46.4817696067242     
   46.5357626116245        46.6244720267984        55.0789524483466     
   55.6544933130528        103.865371850037        138.635336603025     
   139.125444944927        149.975871372182       0.115877575795203     
  0.187843417933708       0.259917137578530       0.383732888975273     
  0.419924468933737       0.612500265678712       0.712296780189233     
  0.767951297729013       0.884539090955371       0.902948066011061     
  0.918932225800981        1.00939396699270        1.12583765452726     
   1.22259887674566        1.41110523698163        1.51139797697334     
   1.54812119576877        2.17367128674223        2.25684586320024     
   2.32550520492330        2.45311668470421        2.47681990907132     
   2.48927024663777        2.74383238118032        2.89517624357216     
   3.05561874073115        3.13360092600271        3.36795751179844     
   4.09805137516860        4.14676689842191        4.34896501769940     
   5.29875256826005        6.64854684198521        6.73952741103627     
   7.13571866281638        7.20738139032864        7.27297890149755     
   10.3487397930503        10.3867115086844        12.6788502026463     
   26.2084913873023        36.8941501339464        36.8945795527492     
   36.9033060900750        43.9166310308240        43.9658703372095     
   46.4816687066102        46.5062729574864        55.0184778155808     
   138.337479542516     
 @CHECKOUT-I, Total execution time (CPU/WALL):       34.11/      19.46 seconds.
--executable xvtran finished with status     0 in       19.52 seconds (walltime).
 --invoking executable--
/home/asmola/.local/bin/xintprc
 @GETMEM-I,  Allocated    3814 MB of main memory.
  Processing integrals for CCSD calculation.
  @GMOIAA-I, Processing MO integrals for spin case AA.
  @GMOIAA-I, Generation of integral list completed.
                      TYPE                NUMBER
                      ----               --------
                      PPPP              27524020
                      PPPH               9932000
                      PPHH                900748
                      PHPH                491140
                      PHHH                 89950
                      HHHH                  2356

                     TOTAL              38940214

  @FORMT2-I, Second-order MP correlation energies:
            ------------------------------------------------
            E(SCF)                  =   -534.924818433655 a.u.
            E2(AA)                  =     -0.107328058698 a.u.
            E2(AB)                  =     -0.629506127801 a.u.
            E2(TOT)                 =     -0.844162245196 a.u.
            Total MP2 energy        =   -535.768980678851 a.u.
            ------------------------------------------------
   Largest T2 amplitudes for spin case AB:
       _       _                 _       _                 _       _
   i   j   a   b             i   j   a   b             i   j   a   b
-----------------------------------------------------------------------------
[  9   9  17  17]-0.02011 [  9   9  15  15]-0.02003 [  9   9  17  15] 0.01919
[  9   9  15  17] 0.01919 [ 13  13 112 112]-0.01778 [ 13  13 113 113]-0.01553
[ 13  13 116 116]-0.01497 [  9   9  20  15] 0.01424 [  9   9  15  20] 0.01424
[  8   8  25  25]-0.01399 [ 10  10  26  26]-0.01398 [  9   9  18  17] 0.01371
[  9   9  17  18] 0.01371 [  9   9  18  15]-0.01334 [  9   9  15  18]-0.01334
-----------------------------------------------------------------------------
   Norm of T2AB vector (  1799624 symmetry allowed elements):  0.3238998598.
-----------------------------------------------------------------------------
 @CHECKOUT-I, Total execution time (CPU/WALL):        6.42/       9.11 seconds.
--executable xintprc finished with status     0 in        9.25 seconds (walltime).
  calling xvcc 
 --invoking executable--
/home/asmola/.local/bin/xvcc
 @GETMEM-I,  Allocated    3814 MB of main memory.
   CCSD energy will be calculated.
   The total correlation energy is -0.844162245196 a.u.
   The total correlation energy is -0.845598298807 a.u.
  Convergence information after     1 iterations: 
  Largest element of residual vector : -0.11993335E-01.
  Largest element of DIIS residual   : -0.11993335E-01.
   The total correlation energy is -0.859063438918 a.u.
  Convergence information after     2 iterations: 
  Largest element of residual vector : -0.28649010E-02.
  Largest element of DIIS residual   : -0.26440730E-02.
   The total correlation energy is -0.859005991822 a.u.
  Convergence information after     3 iterations: 
  Largest element of residual vector : -0.19024135E-02.
  Largest element of DIIS residual   : -0.11401530E-02.
   The total correlation energy is -0.860277943795 a.u.
  Convergence information after     4 iterations: 
  Largest element of residual vector : -0.25877288E-03.
  Largest element of DIIS residual   :  0.23451405E-03.
   The total correlation energy is -0.860401057172 a.u.
  Convergence information after     5 iterations: 
  Largest element of residual vector : -0.22307285E-03.
  Largest element of DIIS residual   : -0.17038924E-03.
   The total correlation energy is -0.860401554185 a.u.
  Convergence information after     6 iterations: 
  Largest element of residual vector : -0.98256531E-04.
  Largest element of DIIS residual   : -0.77181126E-04.
   The total correlation energy is -0.860402456409 a.u.
  Convergence information after     7 iterations: 
  Largest element of residual vector : -0.74543192E-04.
  Largest element of DIIS residual   : -0.53841166E-04.
   The total correlation energy is -0.860402127081 a.u.
  Convergence information after     8 iterations: 
  Largest element of residual vector : -0.36119779E-04.
  Largest element of DIIS residual   : -0.23002297E-04.
   The total correlation energy is -0.860401947608 a.u.
  Convergence information after     9 iterations: 
  Largest element of residual vector : -0.19722387E-04.
  Largest element of DIIS residual   : -0.11329019E-04.
   The total correlation energy is -0.860402734462 a.u.
  Convergence information after    10 iterations: 
  Largest element of residual vector : -0.93328711E-05.
  Largest element of DIIS residual   : -0.47216278E-05.
   The total correlation energy is -0.860402980000 a.u.
  Convergence information after    11 iterations: 
  Largest element of residual vector : -0.28039044E-05.
  Largest element of DIIS residual   :  0.18121996E-05.
   The total correlation energy is -0.860403131152 a.u.
  Convergence information after    12 iterations: 
  Largest element of residual vector : -0.16640083E-05.
  Largest element of DIIS residual   : -0.80538385E-06.
   The total correlation energy is -0.860403186331 a.u.
  Convergence information after    13 iterations: 
  Largest element of residual vector : -0.43409275E-06.
  Largest element of DIIS residual   : -0.40377933E-06.
   The total correlation energy is -0.860403192857 a.u.
  Convergence information after    14 iterations: 
  Largest element of residual vector : -0.30666712E-06.
  Largest element of DIIS residual   : -0.20057607E-06.
   The total correlation energy is -0.860403194407 a.u.
  Convergence information after    15 iterations: 
  Largest element of residual vector : -0.13359731E-06.
  Largest element of DIIS residual   :  0.10866816E-06.
   The total correlation energy is -0.860403194383 a.u.
  Convergence information after    16 iterations: 
  Largest element of residual vector : -0.95358189E-07.
  Largest element of DIIS residual   : -0.46849281E-07.
   The total correlation energy is -0.860403195223 a.u.
  Convergence information after    17 iterations: 
  Largest element of residual vector : -0.47355264E-07.
  Largest element of DIIS residual   : -0.28687944E-07.
   The total correlation energy is -0.860403195348 a.u.
  Convergence information after    18 iterations: 
  Largest element of residual vector : -0.19393434E-07.
  Largest element of DIIS residual   : -0.12579671E-07.
   The total correlation energy is -0.860403195576 a.u.
  Convergence information after    19 iterations: 
  Largest element of residual vector : -0.12041906E-07.
  Largest element of DIIS residual   : -0.62998043E-08.
   The total correlation energy is -0.860403195731 a.u.
  Convergence information after    20 iterations: 
  Largest element of residual vector : -0.32632702E-08.
  Largest element of DIIS residual   : -0.24230623E-08.
   The total correlation energy is -0.860403195761 a.u.
  Convergence information after    21 iterations: 
  Largest element of residual vector : -0.21303986E-08.
  Largest element of DIIS residual   : -0.13340340E-08.
   The total correlation energy is -0.860403195790 a.u.
  Convergence information after    22 iterations: 
  Largest element of residual vector : -0.90138239E-09.
  Largest element of DIIS residual   : -0.72792171E-09.
   The total correlation energy is -0.860403195787 a.u.
  Convergence information after    23 iterations: 
  Largest element of residual vector : -0.57792619E-09.
  Largest element of DIIS residual   :  0.32921933E-09.
   The total correlation energy is -0.860403195787 a.u.
  Convergence information after    24 iterations: 
  Largest element of residual vector : -0.29283789E-09.
  Largest element of DIIS residual   : -0.25899818E-09.
   The total correlation energy is -0.860403195787 a.u.
  Convergence information after    25 iterations: 
  Largest element of residual vector : -0.17382525E-09.
  Largest element of DIIS residual   : -0.13208388E-09.
   The total correlation energy is -0.860403195787 a.u.
  Convergence information after    26 iterations: 
  Largest element of residual vector : -0.11100857E-09.
  Largest element of DIIS residual   : -0.77303821E-10.
   The total correlation energy is -0.860403195789 a.u.
  Convergence information after    27 iterations: 
  Largest element of residual vector : -0.48858611E-10.
  Largest element of DIIS residual   : -0.33311288E-10.
  Amplitude equations converged in    27iterations.
   The total correlation energy is -0.860403195789 a.u.
   The CC iterations have converged.

   Largest T1 amplitudes for spin case AA:
   i       a                 i       a                 i       a    
[...]
 term  0.483995667845451     
 final tnorm  0.846291000197527     
  norm contr. I: |<0|L dT/dx|0>|^2   0.000000000000000E+000
  norm contr. II: <0|[nabla(1+L)e-T][nabla e^T]|0>  0.483995667845451     
  total norm contribution  0.483995667845451     
 oo  2.216809080834561E-003
 vv  -1.63001598245548     
 vo -2.575297105405744E-002
  Correlated perturbed 1-el contribution to DBOC  -1.65355214442871       cm**-1
  SUM_I |dc_I/dx|^2 contribution to DBOC  0.833431978168926       cm**-1
 
 
  The total diagonal Born-Oppenheimer correction (DBOC) is:      0.0087327475 a.u.
  The total diagonal Born-Oppenheimer correction (DBOC) is:       1916.616534 cm-1
 
 Total CC energy including DBOC  -535.776488881966     
 First-order density matrix is being calculated  (Symmetry block 2, perturbation   3)
 Calculation of the contributions of <pq||rs> to dI(i,j)/dx required   4.0 seconds.
 Calculation of the contributions of <pq||rs> to dI(a,b)/dx required  10.5 seconds.
 Calculation of the contributions of <pq||rs> to dI(i,a)/dx required   6.1 seconds.
 First-order Z-vector equations are solved for 1 perturbation.
 Convergence reached after  22 iterations.
        U*G(pq,rs) contribution is being calculated
             (Symmetry block 2, perturbation   3)

 CCSD contribution to force constants 

        0.0000000000        0.0000000000        0.0000000000
        0.0000000000        0.0000000000        0.0000000000
        0.0000000000        0.0000000000        0.0000000000
        0.0000000000        0.0000000000        0.0000000000
        0.0000000000        0.0000000000        0.0000000000
        0.0000000000        0.0000000000        0.0000000000
        0.0000000000        0.0000000000        0.0000000000
        0.0000000000        0.0000000000        0.0000000000
        0.0000000000        0.0000000000        0.0000000000
        0.0000000000        0.0000000000        0.0000000000
        0.0000000000        0.0000000000        0.0000000000
        0.0000000000        0.0000000000        0.0000000000
        0.0000000000        0.0000000000        0.0000000000
        0.0000000000        0.0000000000        0.0000000000
        0.0000000000        0.0000000000        0.0000000000
        0.0000000000        0.0000000000        0.0000000000
        0.0000000000        0.0000000000        0.0000000000
        0.0000000000        0.0000000000        0.0000000000
        0.0000000000        0.0000000000        0.0000000000
        0.0000000000        0.0000000000        0.0000000000
        0.0000000000        0.0000000000        0.0000000000
        0.0000000000        0.0000000000        0.0000000000
        0.0000000000        0.0000000000        0.0000000000
        0.0000000000        0.0000000000        0.0000000000
        0.0000000000        0.0000000000        0.0000000000
        0.0000000000        0.0000000000        0.0000000000
        0.0026567636        0.1323551906       -0.1350119543

 CCSD contribution to dipole derivatives 

        0.0000000000        0.0000000000        0.0000000000
        0.0000000000        0.0000000000        0.0000000000
        0.0000000000        0.0000000000        0.0000000000
        0.0000000000        0.0000000000        0.0000000000
        0.0000000000        0.0000000000        0.0000000000
        0.0000000000        0.0000000000        0.0000000000
        0.0000000000        0.0000000000        0.0000000000
        0.0000000000        0.0000000000        0.0000000000
        0.0000000000        0.0000000000        0.0119022135
 @CHECKOUT-I, Total execution time (CPU/WALL):      949.90/     261.00 seconds.
--executable xsdcc finished with status     0 in      261.21 seconds (walltime).
 --invoking executable--
/home/asmola/.local/bin/xanti
 @GETMEM-I,  Allocated    3814 MB of main memory.
 CCSD MO derivative gammas will be sorted to Mulliken order.
 @CHECKOUT-I, Total execution time (CPU/WALL):        6.54/       5.16 seconds.
--executable xanti finished with status     0 in        5.32 seconds (walltime).
 --invoking executable--
/home/asmola/.local/bin/xbcktrn
 @GETMEM-I,  Allocated    3814 MB of main memory.
 CCSD MO derivative gammas will be transformed to the AO basis.
 @CHECKOUT-I, Total execution time (CPU/WALL):       11.35/       2.74 seconds.
--executable xbcktrn finished with status     0 in        2.80 seconds (walltime).
 --invoking executable--
/home/asmola/.local/bin/xvdint
 @GETMEM-I,  Allocated    3814 MB of main memory.
 One- and two-electron integral derivatives are calculated
 for RHF-CC/MBPT hessians and dipole derivatives.
 Spherical gaussians are used.
  magnet F F
 Evaluation of 2el integral derivatives

                      Two-electron integral gradient
                      ------------------------------

                         O #1 x     0.0000000000
                         O #1 y     0.0000000000
                         H #2 x     0.0000000000
                         H #2 y     0.0000000000
                         CL#3 x     0.0000000000
                         CL#3 y     0.0000000000


 O #1       0.0000000000            0.0000000000           -0.0916050630
 H #2       0.0000000000            0.0000000000            0.0043069859
 CL#3       0.0000000000            0.0000000000            0.0872980771


 Evaluation of 2e integral derivatives required  115.40 seconds.
  contribution to Hessian
        0.0000000000        0.0000000000        0.0000000000
        0.0000000000        0.0000000000        0.0000000000
       -0.0916050630        0.0043069859        0.0872980771
 @CHECKOUT-I, Total execution time (CPU/WALL):      115.47/      20.33 seconds.
--executable xvdint finished with status     0 in       20.44 seconds (walltime).
 --invoking executable--
/home/asmola/.local/bin/xanti
 @GETMEM-I,  Allocated    3814 MB of main memory.
 CCSD MO gammas will be sorted to Mulliken order.
 @CHECKOUT-I, Total execution time (CPU/WALL):        8.48/      13.40 seconds.
--executable xanti finished with status     0 in       13.53 seconds (walltime).
 --invoking executable--
/home/asmola/.local/bin/xbcktrn
 @GETMEM-I,  Allocated    3814 MB of main memory.
 CCSD MO gammas will be transformed to the AO basis.
 @CHECKOUT-I, Total execution time (CPU/WALL):       19.85/       3.83 seconds.
--executable xbcktrn finished with status     0 in        3.91 seconds (walltime).
 --invoking executable--
/home/asmola/.local/bin/xvdint
 @GETMEM-I,  Allocated    3814 MB of main memory.
 One- and two-electron integral derivatives are calculated
 for RHF-CC/MBPT hessians and dipole derivatives.
 Spherical gaussians are used.
  magnet F F

                     Kinetic energy integral gradient
                     --------------------------------

                         O #1 x     0.0200510039
                         O #1 y    -0.6002758875
                         H #2 x     0.3217961731
                         H #2 y     0.6262194403
                         CL#3 x    -0.3418471770
                         CL#3 y    -0.0259435528


 O #1       0.0200510039           -0.6002758875            0.0000000000
 H #2       0.3217961731            0.6262194403            0.0000000000
 CL#3      -0.3418471770           -0.0259435528            0.0000000000



                   Nuclear attraction integral gradient
                   ------------------------------------

                         O #1 x   -23.3275889617
                         O #1 y     6.4491309977
                         H #2 x    -4.8093859831
                         H #2 y    -6.6917421803
                         CL#3 x    28.1369749447
                         CL#3 y     0.2426111827


 O #1     -23.3275889617            6.4491309977            0.0000000000
 H #2      -4.8093859831           -6.6917421803            0.0000000000
 CL#3      28.1369749447            0.2426111827            0.0000000000



                      Reorthonormalization gradient
                      -----------------------------

                         O #1 x     0.0000000000
                         O #1 y     0.0000000000
                         H #2 x     0.0000000000
                         H #2 y     0.0000000000
                         CL#3 x     0.0000000000
                         CL#3 y     0.0000000000


 O #1       0.0000000000            0.0000000000            0.0000000000
 H #2       0.0000000000            0.0000000000            0.0000000000
 CL#3       0.0000000000            0.0000000000            0.0000000000



                     Kinetic energy integral Hessian
                     -------------------------------


           Symmetry 1

           O #1 x      O #1 y      H #2 x      H #2 y      CL#3 x      CL#3 y

 O #1 x   -0.141078
 O #1 y    0.458276    0.106280
 H #2 x    0.508044   -0.450933   -0.510739
 H #2 y   -0.450933   -0.319423    0.463287    0.322718
 CL#3 x   -0.366967   -0.007343    0.002695   -0.012355    0.364272
 CL#3 y   -0.007343    0.213143   -0.012355   -0.003295    0.019698   -0.209848


           Symmetry 2

           O #1 z      H #2 z      CL#3 z

 O #1 z   -0.970618
 H #2 z    0.767325   -0.772656
 CL#3 z    0.203293    0.005331   -0.208623




           O #1 x      O #1 y      O #1 z      H #2 x      H #2 y      H #2 z

 O #1 x   -0.141078
 O #1 y    0.458276    0.106280
 O #1 z    0.000000    0.000000   -0.970618

 H #2 x    0.508044   -0.450933    0.000000   -0.510739
 H #2 y   -0.450933   -0.319423    0.000000    0.463287    0.322718
 H #2 z    0.000000    0.000000    0.767325    0.000000    0.000000   -0.772656

 CL#3 x   -0.366967   -0.007343    0.000000    0.002695   -0.012355    0.000000
 CL#3 y   -0.007343    0.213143    0.000000   -0.012355   -0.003295    0.000000
 CL#3 z    0.000000    0.000000    0.203293    0.000000    0.000000    0.005331


           CL#3 x      CL#3 y      CL#3 z

 CL#3 x    0.364272
 CL#3 y    0.019698   -0.209848
 CL#3 z    0.000000    0.000000   -0.208623




                   Nuclear attraction integral Hessian
                   -----------------------------------


           Symmetry 1

           O #1 x      O #1 y      H #2 x      H #2 y      CL#3 x      CL#3 y

 O #1 x   -8.514257
 O #1 y   -2.384238   10.028034
 H #2 x   -5.744969    3.287974    5.220898
 H #2 y    3.305947    0.247017   -4.115500   -0.323935
 CL#3 x   14.259227   -0.903736    0.524071    0.809554  -14.783298
 CL#3 y   -0.921709  -10.275052    0.827527    0.076918    0.094182   10.198134


           Symmetry 2

           O #1 z      H #2 z      CL#3 z

 O #1 z   17.317360
 H #2 z   -7.627148    8.100714
 CL#3 z   -9.690212   -0.473566   10.163778




           O #1 x      O #1 y      O #1 z      H #2 x      H #2 y      H #2 z

 O #1 x   -8.514257
 O #1 y   -2.384238   10.028034
 O #1 z    0.000000    0.000000   17.317360

 H #2 x   -5.744969    3.287974    0.000000    5.220898
 H #2 y    3.305947    0.247017    0.000000   -4.115500   -0.323935
 H #2 z    0.000000    0.000000   -7.627148    0.000000    0.000000    8.100714

 CL#3 x   14.259227   -0.903736    0.000000    0.524071    0.809554    0.000000
 CL#3 y   -0.921709  -10.275052    0.000000    0.827527    0.076918    0.000000
 CL#3 z    0.000000    0.000000   -9.690212    0.000000    0.000000   -0.473566


           CL#3 x      CL#3 y      CL#3 z

 CL#3 x  -14.783298
 CL#3 y    0.094182   10.198134
 CL#3 z    0.000000    0.000000   10.163778




                Highest order reorthonormalization Hessian
                ------------------------------------------


           Symmetry 1

           O #1 x      O #1 y      H #2 x      H #2 y      CL#3 x      CL#3 y

 O #1 x    0.000000
 O #1 y    0.000000    0.000000
 H #2 x    0.000000    0.000000    0.000000
 H #2 y    0.000000    0.000000    0.000000    0.000000
 CL#3 x    0.000000    0.000000    0.000000    0.000000    0.000000
 CL#3 y    0.000000    0.000000    0.000000    0.000000    0.000000    0.000000


           Symmetry 2

           O #1 z      H #2 z      CL#3 z

 O #1 z    0.000000
 H #2 z    0.000000    0.000000
 CL#3 z    0.000000    0.000000    0.000000




           O #1 x      O #1 y      O #1 z      H #2 x      H #2 y      H #2 z


           CL#3 x      CL#3 y      CL#3 z




                Electronic contributions to dipole moment
                -----------------------------------------

                               au             Debye

                    x      1.71231949      4.35228277
                    y      0.20655991      0.52502302

  Conversion factor used: 1 a.u. =   2.54174691 Debye 



   Electronic contributions to static part of dipole moment derivatives
   --------------------------------------------------------------------


                     Total dipole moment derivatives
                     -------------------------------


           Symmetry 1
                              Ex             Ey

               O #1 x    -8.85075393    -0.07667197
               O #1 y    -0.25521640    -8.76204478
               H #2 x    -0.34344630     0.12333137
               H #2 y     0.32841256    -0.37473194
               CL#3 x   -16.80579977    -0.04665940
               CL#3 y    -0.07319616   -16.86322327

           Symmetry 2
                              Ez

               O #1 z    -8.38385787
               H #2 z    -0.73917048
               CL#3 z   -16.87697165



                       Ex          Ey          Ez

      O #1    x   -8.850754   -0.076672    0.000000
      O #1    y   -0.255216   -8.762045    0.000000
      O #1    z    0.000000    0.000000   -8.383858

      H #2    x   -0.343446    0.123331    0.000000
      H #2    y    0.328413   -0.374732    0.000000
      H #2    z    0.000000    0.000000   -0.739170

      CL#3    x  -16.805800   -0.046659    0.000000
      CL#3    y   -0.073196  -16.863223    0.000000
      CL#3    z    0.000000    0.000000  -16.876972

 Evaluation of 1e integral derivatives required    1.69 seconds.
 Evaluation of 2el integral derivatives

                      Two-electron integral gradient
                      ------------------------------

                         O #1 x    10.6636067102
                         O #1 y    -2.7434637444
                         H #2 x     2.5843092025
                         H #2 y     3.0803177863
                         CL#3 x   -13.2479159126
                         CL#3 y    -0.3368540419


 O #1      10.6636067102           -2.7434637444            0.0000000000
 H #2       2.5843092025            3.0803177863            0.0000000000
 CL#3     -13.2479159126           -0.3368540419            0.0000000000


 Evaluation of 2e integral derivatives required  291.80 seconds.

                            Molecular gradient
                            ------------------

                         O #1 x    -0.0286459953
                         O #1 y     0.2281611629
                         H #2 x    -0.1425788570
                         H #2 y    -0.2506535929
                         CL#3 x     0.1712248523
                         CL#3 y     0.0224924300


 O #1      -0.0286459953            0.2281611629            0.0000000000
 H #2      -0.1425788570           -0.2506535929            0.0000000000
 CL#3       0.1712248523            0.0224924300            0.0000000000


  Molecular gradient norm 0.407E+00

                            Molecular hessian
                            -----------------


           Symmetry 1

           O #1 x      O #1 y      H #2 x      H #2 y      CL#3 x      CL#3 y

 O #1 x    3.490823
 O #1 y    2.529537    9.041313
 H #2 x   -1.649635   -4.511147    1.578176
 H #2 y   -2.709505   -8.904578    2.972898    8.346975
 CL#3 x   -1.841187    0.517631   -0.277726   -0.300087    2.118914
 CL#3 y    0.179968   -0.136736   -0.202827    0.092421    0.022859    0.044314


           Symmetry 2

           O #1 z      H #2 z      CL#3 z

 O #1 z   -3.002556
 H #2 z    3.178044   -3.422513
 CL#3 z   -0.175488    0.126037    0.049451




           O #1 x      O #1 y      O #1 z      H #2 x      H #2 y      H #2 z

 O #1 x    3.490823
 O #1 y    2.529537    9.041313
 O #1 z    0.000000    0.000000   -3.002556

 H #2 x   -1.649635   -4.511147    0.000000    1.578176
 H #2 y   -2.709505   -8.904578    0.000000    2.972898    8.346975
 H #2 z    0.000000    0.000000    3.178044    0.000000    0.000000   -3.422513

 CL#3 x   -1.841187    0.517631    0.000000   -0.277726   -0.300087    0.000000
 CL#3 y    0.179968   -0.136736    0.000000   -0.202827    0.092421    0.000000
 CL#3 z    0.000000    0.000000   -0.175488    0.000000    0.000000    0.126037


           CL#3 x      CL#3 y      CL#3 z

 CL#3 x    2.118914
 CL#3 y    0.022859    0.044314
 CL#3 z    0.000000    0.000000    0.049451




                           Total dipole moment
                           -------------------

                               au             Debye

                    x     -0.15136118     -0.38472182
                    y     -0.57122307     -1.45190447

  Conversion factor used: 1 a.u. =   2.54174691 Debye 



                     Total dipole moment derivatives
                     -------------------------------


           Symmetry 1
                              Ex             Ey

               O #1 x    -0.47914112    -0.05091698
               O #1 y    -0.17808383    -0.18263904
               H #2 x     0.24895455     0.01953470
               H #2 y     0.11779766     0.20467677
               CL#3 x     0.23018700     0.03138215
               CL#3 y     0.06028623    -0.02203774

           Symmetry 2
                              Ez

               O #1 z    -0.34879547
               H #2 z     0.33483317
               CL#3 z     0.01396231



                       Ex          Ey          Ez

      O #1    x   -0.479141   -0.050917    0.000000
      O #1    y   -0.178084   -0.182639    0.000000
      O #1    z    0.000000    0.000000   -0.348795

      H #2    x    0.248955    0.019535    0.000000
      H #2    y    0.117798    0.204677    0.000000
      H #2    z    0.000000    0.000000    0.334833

      CL#3    x    0.230187    0.031382    0.000000
      CL#3    y    0.060286   -0.022038    0.000000
      CL#3    z    0.000000    0.000000    0.013962

  Molecular gradient does not satisfy rotational invariance condition.
   rotational invariance in yz-plane :        0.0000E+00
   rotational invariance in xz-plane :        0.0000E+00
   rotational invariance in xy-plane :        -.5451E-04
 @CHECKOUT-I, Total execution time (CPU/WALL):      293.53/      43.03 seconds.
--executable xvdint finished with status     0 in       43.13 seconds (walltime).
 --invoking executable--
/home/asmola/.local/bin/xjoda
  @GTFLGS-I, Hessian will be transformed to curvilinear coordinates.
  @GTFLGS-I, Hessian will be transformed to curvilinear coordinates.
  igrd and ihes are                      0                     1
  gradient from JOBARC 
  -0.028645995315519   0.228161162907476   0.000000000000000
  -0.142578856982614  -0.250653592875589   0.000000000000000
   0.171224852298160   0.022492429968120   0.000000000000000
 
  @PROJFCM-I, Projecting force constant matrix onto totally symmetric subspace.
  Largest difference between matrix elements of symmetrized
  and unsymmetrized FCM :     0.0000000000E+00.
 
  Summary of diagonal Born-Oppenheimer correction at the correlated level
  The total diagonal Born-Oppenheimer correction (DBOC) is:      0.0087327475 a.u.
  The total diagonal Born-Oppenheimer correction (DBOC) is:       1916.616534 cm-1
  The total diagonal Born-Oppenheimer correction (DBOC) is:            22.928 kJ/mole
  hellooooooo 
  readis is  F
 
 @CHECKOUT-I, Total execution time (CPU/WALL):        0.01/       0.10 seconds.
--executable xjoda finished with status     0 in        0.31 seconds (walltime).
  The final electronic energy is      -535.776488881965633 a.u. 
  This computation required                         2969.14 seconds (walltime).
