 --invoking executable--
/home/asmola/.local/bin/xjoda


   *************************************************************************
         <<<     CCCCCC     CCCCCC   |||     CCCCCC     CCCCCC   >>>
       <<<      CCC        CCC       |||    CCC        CCC         >>>
      <<<      CCC        CCC        |||   CCC        CCC            >>>
    <<<        CCC        CCC        |||   CCC        CCC              >>>
      <<<      CCC        CCC        |||   CCC        CCC            >>>
       <<<      CCC        CCC       |||    CCC        CCC         >>>
         <<<     CCCCCC     CCCCCC   |||     CCCCCC     CCCCCC   >>>
   *************************************************************************

     ****************************************************************
     * CFOUR Coupled-Cluster techniques for Computational Chemistry *
     ****************************************************************
 

   Department of Chemistry                Institut fuer Physikalische Chemie
   University of Florida                  Universitaet Mainz
   Gainesville, FL 32611, USA             D-55099 Mainz, Germany

   Department of Chemistry                Fakultaet fuer Chemie und Biowiss.
   Johns Hopkins University               Karlsruher Institut fuer Technologie
   Baltimore, MD 21218, USA               D-76131 Karlsruhe, Germany

   Department of Chemistry                Department of Physical Chemistry
   Southern Methodist University          Eotvos Lorand University
   Dallas, TX 75275, USA                  H-1053 Budapest, Hungary

 
                       Version 2.1
 
                     vincent.theory.phys.ucl.ac.uk                     
                     Thu 30 Jan 10:13:04 GMT 2025                      
                     integer*8 version is running
 
********************************************************************************
*                          Input from ZMAT file                                *
********************************************************************************
Hypochlorous acid DBOC calculation                                              
O                                                                               
H 1 ROH                                                                         
CL 1 ROCL 2 A                                                                   
                                                                                
ROH=1.3500000000000005                                                          
ROCL=1.683                                                                      
A=107.0                                                                         
                                                                                
                                                                                
*CFOUR(CALC=CCSD,BASIS=AUG-PCVTZ,SCF_CONV=10                                    
CC_CONV=10,DBOC=ON,MEMORY=500000000)                                            
********************************************************************************
  @GTFLGS-I, Hessian will be transformed to curvilinear coordinates.
    -------------------------------------------------------------------
                    CFOUR Control Parameters 
    -------------------------------------------------------------------
        External           Internal           Value            Units
          Name               Name
    -------------------------------------------------------------------
       ABCDTYPE             IABCDT         STANDARD    [  0]    ***   
       ANHARMONIC           IANHAR         OFF         [  0]    ***   
       ANH_ALGORIT          IANALG         STANDARD    [  0]    ***   
       ANH_DERIVAT          IANDER         SECOND      [  1]    ***   
       ANH_MODE             ANHMOD         VIBRATION   [  0]    ***   
       ANH_STEPSIZ          ICUBST             50000          x 10-6  
       ANH_SYMMETR          IANHSM         ABELIAN     [  0]    ***   
       AO_LADDERS           IAOLAD         SINGLEPASS  [  1]    ***   
       AV_SCF               IAVSCF         OFF         [  0]    ***   
       BASIS                IBASIS         AUG-PCVTZ   [ 51]    ***   
       BOTHVECTORS          BOTHVC         OFF         [  0]    ***   
       BOX_POTENT           IPIAB          OFF         [  0]    ***   
       BREIT                IBREIT         OFF         [  0]    ***   
       BRUCK_CONV           IBRTOL          10D-  4             ***   
       BRUECKNER            IBRKNR         OFF         [  0]    ***   
       BUFFERSIZE           IBUFFS              4096            ***   
       CACHE_RECS           ICHREC             10               ***   
       CALCLEVEL            ICLLVL         CCSD        [ 10]    ***   
       CCORBOPT             ICCORB         OFF         [  0]  x 0.01  
       CC_CONV              ICCCNV          10D- 10             ***   
       CC_EXPORDER          ICCEOR              5               ***   
       CC_EXTRAPOL          ICCEXT         DIIS        [  1]    ***   
       CC_GUESS             ICCGES         MP2         [  0]    ***   
       CC_MAXCYC            ICCCYC            100              cycles 
       CC_PROGRAM           ICCPRO         VCC         [  0]    ***   
       CHARGE               ICHRGE              0               ***   
       CHOLESKY             ICHOLE         OFF         [  0]    ***   
       CIS_CONV             ICISTL              5               ***   
       COMM_SIZE            IPSIZE            ***               ***   
       CONSTANT             ICONST         OLD         [  1]    ***   
       CONTINUUM            ICONTU         NONE        [  0]    ***   
       CONTRACTION          ICNTYP         GENERAL     [  1]    ***   
       COORDINATES          ICOORD         INTERNAL    [  0]    ***   
       CPHF_CONVER          ICPHFT          10D- 16             ***   
       CPHF_MAXCYC          ICPHFC             64              cycles 
       CUBIC                ICUBIC         OFF         [  0]    ***   
       CURVILINEAR          ICURVY         ON          [  1]    ***   
       DBOC                 IDBOC          ON          [  1]    ***   
       DCT                  IDCT           OFF         [  0]    ***   
       DERIV_LEV            IDRLVL         SECOND      [  2]    ***   
       DEVMEM_SIZE          IDVMEM          50000000           MByte  
       DIAG_MRCC            IEOMST          10D-  0             ***   
       DIFF_TYPE            IDIFTY         RELAXED     [  0]    ***   
       DIRECT               IDIRCT         OFF         [  0]    ***   
       DROPMO               IDRPMO      NONE         
       ECP                  IECP           OFF         [  0]    ***   
       EIGENVECTOR          IVEC                1               ***   
       EL_ANHARM            IELANH         OFF         [  0]    ***   
       EOMFOLLOW            IEOMSR         ENERGY      [  0]    ***   
       EOMIP                IEOMIP         OFF         [  0]    ***   
       EOMLEVEL             HBARFM         SAME        [  0]    ***   
       EOM_MRCC             IMRCCE         NEW         [  1]    ***   
       EOM_NONIT            EOMNON         OFF         [  0]    ***   
       EOM_NSING            IEOMSI          10D-  0             ***   
       EOM_NSTATES          IMRCCD         DAVIDSON    [  0]    ***   
       EOM_NTRIP            IEOMTR          10D-  0             ***   
       EOM_ORDER            IEXORD         ENERGY      [  0]    ***   
       EOM_PROPSTA          IEOMST              0               ***   
       ESTATE_CONV          IEXTOL          10D-  5             ***   
       ESTATE_DIAG          IEXDIG         ITERATIVE   [  0]    ***   
       ESTATE_LOCK          IESLOC         ON          [  1]    ***   
       ESTATE_MAXC          IEXMXC             40               ***   
       ESTATE_PROP          IEXPRP         OFF         [  0]    ***   
       EVAL_HESS            IRECAL              0            # of cyc.
       EXCITATION           IEXCIT              0               ***   
       EXCITE               IEXCIT         NONE        [  0]    ***   
       EXTERN_POT           IEXPOT         OFF         [  0]    ***   
       FCGRADNEW            IFCGNW         OFF         [  0]    ***   
       FC_FIELD             IFINFC              0             x 10-6  
       FD_CALTYPE           IFDCAL         GRADONLY    [  0]    ***   
       FD_PROJECT           IFDPRJ         OFF         [  1]    ***   
       FD_STEPSIZE          IDISFD              0            10-4 bohr
       FD_USEGROUP          IFDGRP         FULL        [  0]    ***   
       FILE_RECSIZ          IFLREC              4096           words  
       FINITE_PERT          IFIPER              0             x 10-6  
       FIXGEOM              IFIXGM         OFF         [  0]    ***   
       FOCK                 IFOCK          AO          [  1]    ***   
       FREQ_ALGORI          IVIALG         STANDARD    [  0]    ***   
       FROZEN_CORE          IFROCO         OFF         [  0]    ***   
       GAMMA_ABCD           IGABCD         STORE       [  0]    ***   
       GAMMA_ABCI           IGABCI         STORE       [  0]    ***   
       GENBAS_1             IGNBS1              0               ***   
       GENBAS_2             IGNBS2              0               ***   
       GENBAS_3             IGNBS3              0               ***   
       GENBAS_4             IGNBS4              0               ***   
       GEO_CONV             ICONTL              5              H/bohr 
       GEO_MAXCYC           IOPTCY             50               ***   
       GEO_MAXSTEP          IMXSTP            300            millibohr
       GEO_METHOD           INR            SINGLE_POINT[  5]    ***   
       GIAO                 IGIAO          OFF         [  1]    ***   
       GIMIC                IGIMIC         OFF         [  0]    ***   
       GRID                 IGRID          OFF         [  0]    ***   
       GRID_ALGO            IGALGO         SERIAL      [  0]    ***   
       GUESS                IGUESS         MOREAD      [  0]    ***   
       HBAR                 IHBAR          OFF         [  0]    ***   
       HESS_TYPE            IHESTP         SCF         [  0]    ***   
       HF2_FILE             IHF2Fl         USE         [  1]    ***   
       HFSTABILITY          ISTABL         OFF         [  0]    ***   
       INCORE               INCORE         OFF         [  0]    ***   
       INPUT_MRCC           IMRCC          ON          [  1]    ***   
       INTEGRALS            INTTYP         VMOL        [  1]    ***   
       JODA_PRINT           IJPRNT              0               ***   
       KEYWORD_OUT          IDMPKW         NO          [  0]    ***   
       LINDEP_TOL           ILINDP              8               ***   
       LINEQ_CONV           IZTACN          10D-  7           cycles  
       LINEQ_EXPOR          ILMAXD              5               ***   
       LINEQ_MAXCY          ILMAXC            100               ***   
       LINEQ_TYPE           ILTYPE         DIIS        [  1]    ***   
       LOCK_ORBOCC          ILOCOC         OFF         [  0]    ***   
       MEMORY_SIZE          IMEMSZ         500000000           words  
       MEM_UNIT             IMEMU          INTEGERWORDS[  0]    ***   
       MRCC                 IMRCCC         OFF         [  0]    ***   
       MULTIPLICTY          IMULTP              1               ***   
       NACOUPLING           IVCOUP         OFF         [  0]    ***   
       NEGEVAL              IDIE           ABORT       [  0]    ***   
       NEWNORM              INEWNO         OFF         [  0]    ***   
       NON-HF               INONHF         OFF         [  0]    ***   
       NTOP_TAMP            ITOPT2             15               ***   
       NUC_MODEL            INUCMO         POINT       [  0]    ***   
       OCCUPATION           IOCCU   ESTIMATED BY SCF 
       OPEN-SHELL           IOPEN          SPIN-ORBITAL[  0]    ***   
       OPTVIB               IOPTVB         OFF         [  0]    ***   
       ORBITALS             IORBTP         STANDARD    [  0]    ***   
       PARALLEL             IPARAL         ON          [  1]    ***   
       PARA_INT             IPINTS         ON          [  1]    ***   
       PARA_PRINT           IPPRIN              0               ***   
       PERT_ORB             IPTORB         STANDARD    [  0]    ***   
       POINTS               IGRDFD              0               ***   
       PRINT                IPRNT               0               ***   
       PROPS                IPROPS         OFF         [  0]    ***   
       PROP_INTEGR          IINTYP         INTERNAL    [  0]    ***   
       PSI                  IPSI           OFF         [  0]    ***   
       QC_ALG               IQCALG         FLM         [  0]    ***   
       QC_LINALG            IQCLIN         TRIDIAG     [  2]    ***   
       QC_MAXCYC            IQCMAX          10D-100           cycles  
       QC_MAXSCFCY          IQCMSC          10D- 15           cycles  
       QC_RTRUST            IQCRTR          10D-  0           x 10-3  
       QC_SKIPSCF           IQCSKI         OFF         [  0]    ***   
       QC_START             IQCSTA          10D-  1             ***   
       QRHFGUESS            IQGUES         OFF         [  0]    ***   
       QUARTIC              IQUART         OFF         [  0]    ***   
       RAMAN_INT            IRAMIN         OFF         [  0]    ***   
       RAMAN_ORB            IRAMRE         UNRELAXED   [  0]    ***   
       RDO                  IRDOFM         ON          [  1]    ***   
       REDUCE_REPR          REDREP         Ir          [  0]    ***   
       REFERENCE            IREFNC         RHF         [  0]    ***   
       RELATIVIST           IRELAT         OFF         [  0]    ***   
       RELAX_DENS           IRDENS         ON          [  1]    ***   
       RESET_FLAGS          IRESET         OFF         [  0]    ***   
       RESTART_CC           ICCRES         OFF         [  0]    ***   
       ROT_EVEC             ROTVEC              0               ***   
       SAVE_INTS            ISVINT         OFF         [  0]    ***   
       SCALE_ON             ISTCRT              0               ***   
       SCF_CONV             ISCFCV          10D- 10             ***   
       SCF_DAMPING          IDAMP               0             x 10-3  
       SCF_EXPORDE          IRPPOR              6               ***   
       SCF_EXPSTAR          IRPPLS              8               ***   
       SCF_EXTRAPO          IRPP           ON          [  1]    ***   
       SCF_MAXCYC           ISCFCY            150              cycles 
       SCF_NOSTOP           ISCFST         OFF         [  0]    ***   
       SCF_PRINT            ISCFPR              0               ***   
       SCF_PROG             ISCFPR         SCF         [  0]    ***   
       SD_FIELD             IFINSD              0             x 10-6  
       SOPERT               IPERSO         OFF         [  0]    ***   
       SPHERICAL            IDFGHI         ON          [  1]    ***   
       SPINORBIT            ISOCAL         OFF         [  0]    ***   
       SPINROTATIO          ISRCON         OFF         [  0]    ***   
       SPIN_FLIP            ISPFLP         OFF         [  0]    ***   
       SPIN_ORBIT           ISPORB         OFF         [  0]    ***   
       SPIN_SCAL            ISCSMP         OFF         [  0]    ***   
       STEEPSCALE           ISTPSC              1000          x 10-3  
       SUBGROUP             ISUBGP         DEFAULT     [  0]    ***   
       SUBGRPAXIS           ISBXYZ         X           [  0]    ***   
       SYMMETRY             ISYM           ON          [  0]    ***   
       SYM_CHECK            ISYMCK         OVERRIDE    [  1]    ***   
       T3_EXTRAPOL          IT3EXT         OFF         [  0]    ***   
       T4_EXTRAPOL          IT4EXP         OFF         [  0]    ***   
       TAMP_SUM             IEVERY              5               ***   
       TESTSUITE            ITESTS         OFF         [  0]    ***   
       THERMOCH             ITHERM         OFF         [  0]    ***   
       TOL_CHOLESK          ITOLCH          10D-  4             ***   
       TRANGRAD             IRESRM         OFF         [  0]    ***   
       TRANS_INV            ITRAIN         IGNORE      [  1]    ***   
       TREAT_PERT           ITREAT         SIMULTANEOUS[  0]    ***   
       TRIP_ALGORI          ITRALG         NORMAL      [  0]    ***   
       UIJ_THRESHO          IUIJTH              1               ***   
       UNITS                IUNITS         ANGSTROM    [  0]    ***   
       UNOS                 IUNOS          OFF         [  0]    ***   
       UPDATE_HESS          IHUPDT         ON          [  1]    ***   
       VIBPHASE             ISETPH         STANDARD    [  0]    ***   
       VIBRATION            IVIB           ANALYTIC    [  1]    ***   
       VIB_ALGORIT          IGEALG         STANDARD    [  0]    ***   
       VNATORB              IVNORB         OFF         [  0]    ***   
       VTRAN                IVTRAN         FULL/PARTIAL[  0]    ***   
       XFIELD               IXEFLD              0             x 10-6  
       XFORM_TOL            IXFTOL          10D- 11             ***   
       YFIELD               IYEFLD              0             x 10-6  
       ZFIELD               IZEFLD              0             x 10-6  
       ZSCALE_EXP           IZEXPS         OFF         [  0]    ***   
    -------------------------------------------------------------------
   3 entries found in Z-matrix 
   Job Title : Hypochlorous acid DBOC calculation                                              
   There are  3 unique internal coordinates.
   Of these,  0 will be optimized.
   User supplied Z-matrix: 
--------------------------------------------------------------------------------
       SYMBOL    BOND      LENGTH    ANGLE     ANGLE     DIHED     ANGLE
                  TO      (ANGST)    WRT      (DEG)      WRT      (DEG)
--------------------------------------------------------------------------------
        O    
        H          1         ROH  
        CL         1         ROCL       2        A    
                  *Initial values for internal coordinates* 
                      Name             Value
                        ROH             1.3500000000
                        ROCL            1.6830000000
                        A             107.0000000000
--------------------------------------------------------------------------------
   Rotational constants (in cm-1): 
          0.4801875729             0.5019907656            11.0557078265
   Rotational constants (in MHz): 
      14395.6632956625         15049.3066581491        331441.8288586371
********************************************************************************
   The full molecular point group is C s .
   The largest Abelian subgroup of the full molecular point group is C s .
   The computational point group is C s .
********************************************************************************
--------------------------------------------------------------------------------
   Analysis of internal coordinates specified by Z-matrix 
--------------------------------------------------------------------------------
   *The nuclear repulsion energy is   49.575299433302753 a.u.
   *There are   3 degrees of freedom within the tot. symm. molecular subspace.
   *Z-matrix requests optimization of   0 coordinates.
   *The optimization is constrained.
   *The following   3 parameters can have non-zero 
    derivatives within the totally symmetric subspace:
             A    [ 3]  ROH  [ 1]  ROCL [ 2]
   *The following   0 parameters are to be optimized:

   *The following coordinates must be varied in an  unconstrained optimization.
             A    [ 3]  ROH  [ 1]  ROCL [ 2]
--------------------------------------------------------------------------------


 ----------------------------------------------------------------
         Coordinates used in calculation (QCOMP) 
 ----------------------------------------------------------------
 Z-matrix   Atomic            Coordinates (in bohr)
  Symbol    Number           X              Y              Z
 ----------------------------------------------------------------
     O         8        -2.11847598     0.17854930     0.00000000
     H         1        -3.01367347    -2.21036046     0.00000000
     CL       17         1.05585672    -0.01796525     0.00000000
 ----------------------------------------------------------------
 
   Interatomic distance matrix (Angstroms) 
 
                 O             H             CL   
                [ 1]        [ 2]        [ 3]
  O    [ 1]     0.00000
  H    [ 2]     1.35000     0.00000
  CL   [ 3]     1.68300     2.44613     0.00000
 rotcon2
   Rotational constants (in cm-1): 
         11.0557078265             0.5019907656             0.4801875729
   Rotational constants (in MHz): 
     331441.8288586365         15049.3066581491         14395.6632956625
  ECPDATA file not present.   Using default ECPDATA. 
  @GTFLGS-I, Hessian will be transformed to curvilinear coordinates.
  There are  157 basis functions.
 @CHECKOUT-I, Total execution time (CPU/WALL):        0.18/       0.24 seconds.
--executable xjoda finished with status     0 in        0.29 seconds (walltime).
 --invoking executable--
/home/asmola/.local/bin/xvmol
 SERIAL VERSION OF MOLECULE STARTED
********************************************************************************
                    INPUT FROM MOL FILE
********************************************************************************
INTGRL        1    0    1    0    0    0    0    0    0                         
         *** CFOUR Program System (Release V0.1) ***                            
Hypochlorous acid DBOC calculation                                              
    3    1 Z          0.10E-08              0    0                              
   9999.00      3.00                                                            
          8.00000000    1    4    1    1    1    1                              
O #1  -2.118475984514171   0.178549299185634   0.000000000000000                
   13    7                                                                      
   15330.0000000000       5.080000000000000E-004 -1.150000000000000E-004        
  0.000000000000000E+000  0.000000000000000E+000  0.000000000000000E+000        
  0.000000000000000E+000  0.000000000000000E+000                                
   2299.00000000000       3.929000000000000E-003 -8.950000000000000E-004        
  0.000000000000000E+000  0.000000000000000E+000  0.000000000000000E+000        
  0.000000000000000E+000  0.000000000000000E+000                                
   522.400000000000       2.024300000000000E-002 -4.636000000000000E-003        
  0.000000000000000E+000  0.000000000000000E+000  0.000000000000000E+000        
  0.000000000000000E+000  0.000000000000000E+000                                
   147.300000000000       7.918100000000000E-002 -1.872400000000000E-002        
  0.000000000000000E+000  0.000000000000000E+000  0.000000000000000E+000        
  0.000000000000000E+000  0.000000000000000E+000                                
   47.5500000000000       0.230687000000000      -5.846300000000000E-002        
  0.000000000000000E+000  0.000000000000000E+000  0.000000000000000E+000        
  0.000000000000000E+000  0.000000000000000E+000                                
   16.7600000000000       0.433118000000000      -0.136463000000000             
  0.000000000000000E+000  0.000000000000000E+000  0.000000000000000E+000        
  0.000000000000000E+000  0.000000000000000E+000                                
   6.20700000000000       0.350260000000000      -0.175740000000000             
  0.000000000000000E+000  0.000000000000000E+000  0.000000000000000E+000        
  0.000000000000000E+000  0.000000000000000E+000                                
   1.75200000000000       4.272800000000000E-002  0.160934000000000             
   1.00000000000000       0.000000000000000E+000  0.000000000000000E+000        
  0.000000000000000E+000  0.000000000000000E+000                                
  0.688200000000000      -8.154000000000000E-003  0.603418000000000             
  0.000000000000000E+000  0.000000000000000E+000  0.000000000000000E+000        
  0.000000000000000E+000  0.000000000000000E+000                                
  0.238400000000000       2.381000000000000E-003  0.378765000000000             
  0.000000000000000E+000   1.00000000000000       0.000000000000000E+000        
  0.000000000000000E+000  0.000000000000000E+000                                
   7.84500000000000       0.000000000000000E+000  0.000000000000000E+000        
  0.000000000000000E+000  0.000000000000000E+000   1.00000000000000             
  0.000000000000000E+000  0.000000000000000E+000                                
   21.0320000000000       0.000000000000000E+000  0.000000000000000E+000        
  0.000000000000000E+000  0.000000000000000E+000  0.000000000000000E+000        
   1.00000000000000       0.000000000000000E+000                                
  7.376000000000001E-002  0.000000000000000E+000  0.000000000000000E+000        
  0.000000000000000E+000  0.000000000000000E+000  0.000000000000000E+000        
  0.000000000000000E+000   1.00000000000000                                     
    8    6                                                                      
   34.4600000000000       1.592800000000000E-002  0.000000000000000E+000        
  0.000000000000000E+000  0.000000000000000E+000  0.000000000000000E+000        
  0.000000000000000E+000                                                        
   7.74900000000000       9.974000000000000E-002  0.000000000000000E+000        
  0.000000000000000E+000  0.000000000000000E+000  0.000000000000000E+000        
  0.000000000000000E+000                                                        
   2.28000000000000       0.310492000000000       0.000000000000000E+000        
  0.000000000000000E+000  0.000000000000000E+000  0.000000000000000E+000        
  0.000000000000000E+000                                                        
  0.715600000000000       0.491026000000000        1.00000000000000             
  0.000000000000000E+000  0.000000000000000E+000  0.000000000000000E+000        
  0.000000000000000E+000                                                        
  0.214000000000000       0.336337000000000       0.000000000000000E+000        
   1.00000000000000       0.000000000000000E+000  0.000000000000000E+000        
  0.000000000000000E+000                                                        
   15.1590000000000       0.000000000000000E+000  0.000000000000000E+000        
  0.000000000000000E+000   1.00000000000000       0.000000000000000E+000        
  0.000000000000000E+000                                                        
   57.4370000000000       0.000000000000000E+000  0.000000000000000E+000        
  0.000000000000000E+000  0.000000000000000E+000   1.00000000000000             
  0.000000000000000E+000                                                        
  5.974000000000000E-002  0.000000000000000E+000  0.000000000000000E+000        
  0.000000000000000E+000  0.000000000000000E+000  0.000000000000000E+000        
   1.00000000000000                                                             
    4    4                                                                      
   2.31400000000000        1.00000000000000       0.000000000000000E+000        
  0.000000000000000E+000  0.000000000000000E+000                                
  0.645000000000000       0.000000000000000E+000   1.00000000000000             
  0.000000000000000E+000  0.000000000000000E+000                                
   15.8580000000000       0.000000000000000E+000  0.000000000000000E+000        
   1.00000000000000       0.000000000000000E+000                                
  0.214000000000000       0.000000000000000E+000  0.000000000000000E+000        
  0.000000000000000E+000   1.00000000000000                                     
    2    2                                                                      
   1.42800000000000        1.00000000000000       0.000000000000000E+000        
  0.500000000000000       0.000000000000000E+000   1.00000000000000             
          1.00000000    1    3    1    1    1                                   
H #2  -3.013673467378923  -2.210360460555120   0.000000000000000                
    6    4                                                                      
   33.8700000000000       6.068000000000000E-003  0.000000000000000E+000        
  0.000000000000000E+000  0.000000000000000E+000                                
   5.09500000000000       4.530800000000000E-002  0.000000000000000E+000        
  0.000000000000000E+000  0.000000000000000E+000                                
   1.15900000000000       0.202822000000000       0.000000000000000E+000        
  0.000000000000000E+000  0.000000000000000E+000                                
  0.325800000000000       0.503903000000000        1.00000000000000             
  0.000000000000000E+000  0.000000000000000E+000                                
  0.102700000000000       0.383421000000000       0.000000000000000E+000        
   1.00000000000000       0.000000000000000E+000                                
  2.526000000000000E-002  0.000000000000000E+000  0.000000000000000E+000        
  0.000000000000000E+000   1.00000000000000                                     
    3    3                                                                      
   1.40700000000000        1.00000000000000       0.000000000000000E+000        
  0.000000000000000E+000                                                        
  0.388000000000000       0.000000000000000E+000   1.00000000000000             
  0.000000000000000E+000                                                        
  0.102000000000000       0.000000000000000E+000  0.000000000000000E+000        
   1.00000000000000                                                             
    2    2                                                                      
   1.05700000000000        1.00000000000000       0.000000000000000E+000        
  0.247000000000000       0.000000000000000E+000   1.00000000000000             
         17.00000000    1    4    1    1    1    1                              
CL#3   1.055856718558459  -0.017965250224572   0.000000000000000                
   18    8                                                                      
   456100.000000000       4.930000000000000E-005 -1.380000000000000E-005        
  4.200000000000000E-006  0.000000000000000E+000  0.000000000000000E+000        
  0.000000000000000E+000  0.000000000000000E+000  0.000000000000000E+000        
   68330.0000000000       3.830000000000000E-004 -1.073000000000000E-004        
  3.240000000000000E-005  0.000000000000000E+000  0.000000000000000E+000        
  0.000000000000000E+000  0.000000000000000E+000  0.000000000000000E+000        
   15550.0000000000       2.008500000000000E-003 -5.651000000000000E-004        
  1.711000000000000E-004  0.000000000000000E+000  0.000000000000000E+000        
  0.000000000000000E+000  0.000000000000000E+000  0.000000000000000E+000        
   4405.00000000000       8.385600000000000E-003 -2.361400000000000E-003        
  7.142000000000000E-004  0.000000000000000E+000  0.000000000000000E+000        
  0.000000000000000E+000  0.000000000000000E+000  0.000000000000000E+000        
   1439.00000000000       2.947030000000000E-002 -8.458900000000000E-003        
  2.567000000000000E-003  0.000000000000000E+000  0.000000000000000E+000        
  0.000000000000000E+000  0.000000000000000E+000  0.000000000000000E+000        
   520.400000000000       8.783249999999999E-002 -2.596380000000000E-002        
  7.885500000000000E-003  0.000000000000000E+000  0.000000000000000E+000        
  0.000000000000000E+000  0.000000000000000E+000  0.000000000000000E+000        
   203.100000000000       0.211473000000000      -6.863619999999999E-002        
  2.108670000000000E-002  0.000000000000000E+000  0.000000000000000E+000        
  0.000000000000000E+000  0.000000000000000E+000  0.000000000000000E+000        
   83.9600000000000       0.365364000000000      -0.141874000000000             
  4.422640000000000E-002  0.000000000000000E+000  0.000000000000000E+000        
  0.000000000000000E+000  0.000000000000000E+000  0.000000000000000E+000        
   36.2000000000000       0.340884000000000      -0.199319000000000             
  6.516700000000000E-002  0.000000000000000E+000  0.000000000000000E+000        
  0.000000000000000E+000  0.000000000000000E+000  0.000000000000000E+000        
   15.8300000000000       0.102133000000000      -1.956620000000000E-002        
  6.030100000000000E-003  0.000000000000000E+000  0.000000000000000E+000        
  0.000000000000000E+000  0.000000000000000E+000  0.000000000000000E+000        
   6.33400000000000       3.116800000000000E-003  0.499741000000000             
 -0.206495000000000       0.000000000000000E+000  0.000000000000000E+000        
  0.000000000000000E+000  0.000000000000000E+000  0.000000000000000E+000        
   2.69400000000000       1.057500000000000E-003  0.563736000000000             
 -0.405871000000000       0.000000000000000E+000  0.000000000000000E+000        
  0.000000000000000E+000  0.000000000000000E+000  0.000000000000000E+000        
  0.976800000000000      -3.780000000000000E-004  7.903250000000001E-002        
  7.595580000000000E-002   1.00000000000000       0.000000000000000E+000        
  0.000000000000000E+000  0.000000000000000E+000  0.000000000000000E+000        
  0.431300000000000       1.561000000000000E-004 -8.350900000000000E-003        
  0.725661000000000       0.000000000000000E+000  0.000000000000000E+000        
  0.000000000000000E+000  0.000000000000000E+000  0.000000000000000E+000        
  0.162500000000000      -5.140000000000000E-005  2.324600000000000E-003        
  0.394423000000000       0.000000000000000E+000   1.00000000000000             
  0.000000000000000E+000  0.000000000000000E+000  0.000000000000000E+000        
   15.0640000000000       0.000000000000000E+000  0.000000000000000E+000        
  0.000000000000000E+000  0.000000000000000E+000  0.000000000000000E+000        
   1.00000000000000       0.000000000000000E+000  0.000000000000000E+000        
   2.87400000000000       0.000000000000000E+000  0.000000000000000E+000        
  0.000000000000000E+000  0.000000000000000E+000  0.000000000000000E+000        
  0.000000000000000E+000   1.00000000000000       0.000000000000000E+000        
  5.910000000000000E-002  0.000000000000000E+000  0.000000000000000E+000        
  0.000000000000000E+000  0.000000000000000E+000  0.000000000000000E+000        
  0.000000000000000E+000  0.000000000000000E+000   1.00000000000000             
   12    7                                                                      
   663.300000000000       2.404500000000000E-003 -6.521000000000000E-004        
  0.000000000000000E+000  0.000000000000000E+000  0.000000000000000E+000        
  0.000000000000000E+000  0.000000000000000E+000                                
   156.800000000000       1.921480000000000E-002 -5.194500000000000E-003        
  0.000000000000000E+000  0.000000000000000E+000  0.000000000000000E+000        
  0.000000000000000E+000  0.000000000000000E+000                                
   49.9800000000000       8.850970000000000E-002 -2.469380000000000E-002        
  0.000000000000000E+000  0.000000000000000E+000  0.000000000000000E+000        
  0.000000000000000E+000  0.000000000000000E+000                                
   18.4200000000000       0.256020000000000      -7.281670000000000E-002        
  0.000000000000000E+000  0.000000000000000E+000  0.000000000000000E+000        
  0.000000000000000E+000  0.000000000000000E+000                                
   7.24000000000000       0.436927000000000      -0.134030000000000             
  0.000000000000000E+000  0.000000000000000E+000  0.000000000000000E+000        
  0.000000000000000E+000  0.000000000000000E+000                                
   2.92200000000000       0.350334000000000      -9.477420000000000E-002        
  0.000000000000000E+000  0.000000000000000E+000  0.000000000000000E+000        
  0.000000000000000E+000  0.000000000000000E+000                                
   1.02200000000000       5.854950000000000E-002  0.262289000000000             
   1.00000000000000       0.000000000000000E+000  0.000000000000000E+000        
  0.000000000000000E+000  0.000000000000000E+000                                
  0.381800000000000      -4.584200000000000E-003  0.564667000000000             
  0.000000000000000E+000  0.000000000000000E+000  0.000000000000000E+000        
  0.000000000000000E+000  0.000000000000000E+000                                
  0.130100000000000       2.269700000000000E-003  0.341250000000000             
  0.000000000000000E+000   1.00000000000000       0.000000000000000E+000        
  0.000000000000000E+000  0.000000000000000E+000                                
   9.48000000000000       0.000000000000000E+000  0.000000000000000E+000        
  0.000000000000000E+000  0.000000000000000E+000   1.00000000000000             
  0.000000000000000E+000  0.000000000000000E+000                                
   3.66800000000000       0.000000000000000E+000  0.000000000000000E+000        
  0.000000000000000E+000  0.000000000000000E+000  0.000000000000000E+000        
   1.00000000000000       0.000000000000000E+000                                
  4.190000000000000E-002  0.000000000000000E+000  0.000000000000000E+000        
  0.000000000000000E+000  0.000000000000000E+000  0.000000000000000E+000        
  0.000000000000000E+000   1.00000000000000                                     
    5    5                                                                      
   1.04600000000000        1.00000000000000       0.000000000000000E+000        
  0.000000000000000E+000  0.000000000000000E+000  0.000000000000000E+000        
  0.344000000000000       0.000000000000000E+000   1.00000000000000             
  0.000000000000000E+000  0.000000000000000E+000  0.000000000000000E+000        
   17.9570000000000       0.000000000000000E+000  0.000000000000000E+000        
   1.00000000000000       0.000000000000000E+000  0.000000000000000E+000        
   5.76000000000000       0.000000000000000E+000  0.000000000000000E+000        
  0.000000000000000E+000   1.00000000000000       0.000000000000000E+000        
  0.135000000000000       0.000000000000000E+000  0.000000000000000E+000        
  0.000000000000000E+000  0.000000000000000E+000   1.00000000000000             
    3    3                                                                      
  0.706000000000000        1.00000000000000       0.000000000000000E+000        
  0.000000000000000E+000                                                        
   11.7790000000000       0.000000000000000E+000   1.00000000000000             
  0.000000000000000E+000                                                        
  0.312000000000000       0.000000000000000E+000  0.000000000000000E+000        
   1.00000000000000                                                             
FINISH                                                                          
 
********************************************************************************
 ONE- AND TWO-ELECTRON INTEGRALS OVER SYMMETRY-ADAPTED AOS ARE CALCULATED.

  SPHERICAL HARMONICS ARE USED.
  
  INTEGRALS LESS THAN  0.10E-13 ARE NEGLECTED.

  NUCLEAR REPULSION ENERGY :   49.5752994333 A.U.
  @MOLECU-I, ONE ELECTRON INTEGRALS (CPU/WALL):        0.04/       0.05 SECONDS.
  @TWOEL-I,   14216557 INTEGRALS OF SYMMETRY TYPE  I I I I
  @TWOEL-I,   13409908 INTEGRALS OF SYMMETRY TYPE  I J I J
  @TWOEL-I,    6932748 INTEGRALS OF SYMMETRY TYPE  I I J J
  @TWOEL-I, TOTAL NUMBER OF 2-E INTEGRALS   34559213.
  @MOLECU-I, TWO ELECTRON INTEGRALS (CPU/WALL):       51.53/       8.54 SECONDS.
 @CHECKOUT-I, Total execution time (CPU/WALL):       51.59/       8.61 seconds.

Running with 14 threads/proc

--executable xvmol finished with status     0 in        8.68 seconds (walltime).
 --invoking executable--
/home/asmola/.local/bin/xvmol2ja
 @GETMEM-I,  Allocated    3814 MB of main memory.
 @CHECKOUT-I, Total execution time (CPU/WALL):        0.10/       0.03 seconds.
--executable xvmol2ja finished with status     0 in        0.06 seconds (walltime).
 --invoking executable--
/home/asmola/.local/bin/xvscf
  There are  157 functions in the AO basis.

  There are 2 irreducible representations.

       Irrep        # of functions
         1                104
         2                 53


  Parameters for SCF calculation: 
        SCF reference function:  RHF  
  Maximum number of iterations:  150
     Full symmetry point group: C s 
     Computational point group: C s 
        Initial density matrix: MOREAD                 
     SCF convergence tolerance: 10**(-10)
  DIIS convergence acceleration:  ON
          Latest start for DIIS:   8
                     DIIS order:   6

  Memory information:    1209746 words required.
  Fock matrices are constructed from AO integral file.
 @GETMEM-I,  Allocated       9 MB of main memory.
  Initialization and symmetry analysis required      0.002 seconds.

  @INITGES-I, Occupancies from core Hamiltonian:

          Alpha population by irrep:  10    3
           Beta population by irrep:  10    3


 total no. of electrons in initial guess :  0.000000000000000E+000
  --------------------------------------------------------------------
  Iteration         Total Energy            Largest Density Difference
  --------------------------------------------------------------------
       0            49.575299433302753              0.0000000000D+00
   current occupation vector 
    10  3
    10  3
       1          -366.028892415258781              0.1326085561D+02
   current occupation vector 
    10  3
    10  3
       2          -341.868480401397278              0.1323607208D+02
   current occupation vector 
    10  3
    10  3
       3          -421.982980678785793              0.1071252875D+02
   current occupation vector 
    10  3
    10  3
       4          -339.676103920922742              0.1071953423D+02
   current occupation vector 
    10  3
    10  3
       5          -421.801347664534944              0.1067458134D+02
   current occupation vector 
    10  3
    10  3
       6          -339.617469048121677              0.1067472431D+02
   current occupation vector 
    10  3
    10  3
       7          -421.795890755848177              0.1067339065D+02
   current occupation vector 
    10  3
    10  3
       8          -339.615942898662468              0.1067339441D+02
   current occupation vector 
    10  3
    10  3
       9          -444.899298150065761              0.8453884024D+01
   current occupation vector 
    10  3
    10  3
      10          -464.751514549345586              0.2184163853D+01
   current occupation vector 
    10  3
    10  3
      11          -471.143814001906492              0.7525806416D+00
   current occupation vector 
    10  3
    10  3
      12          -471.238344415880363              0.9271782172D-01
   current occupation vector 
    10  3
    10  3
      13          -479.140371496943487              0.1028244151D+01
   current occupation vector 
    10  3
    10  3
      14          -482.716678960109391              0.4611404158D+00
   current occupation vector 
    10  3
    10  3
      15          -508.132619576815898              0.7452412374D+01
   current occupation vector 
    10  3
    10  3
      16          -520.843670972930454              0.7451974963D+01
   current occupation vector 
    11  2
    11  2
      17          -527.188053708781013              0.4056633047D+01
   current occupation vector 
    11  2
    11  2
      18          -531.843306917675591              0.1760119275D+01
   current occupation vector 
    11  2
    11  2
      19          -534.647145547383957              0.2257125396D+01
   current occupation vector 
    10  3
    10  3
      20          -534.805372372322608              0.5907030776D+00
   current occupation vector 
    10  3
    10  3
      21          -534.838199028544295              0.1974117555D+00
   current occupation vector 
    10  3
    10  3
      22          -534.842733152685696              0.8642966379D-01
   current occupation vector 
    10  3
    10  3
      23          -534.843326136082055              0.3403347550D-01
   current occupation vector 
    10  3
    10  3
      24          -534.843381141940313              0.1097395119D-01
   current occupation vector 
    10  3
    10  3
      25          -534.843390703737327              0.4076009483D-02
   current occupation vector 
    10  3
    10  3
      26          -534.843392280978946              0.1704392844D-02
   current occupation vector 
    10  3
    10  3
      27          -534.843392469060063              0.4859631105D-03
   current occupation vector 
    10  3
    10  3
      28          -534.843392492981707              0.1994368288D-03
   current occupation vector 
    10  3
    10  3
      29          -534.843392495818762              0.6711909292D-04
   current occupation vector 
    10  3
    10  3
      30          -534.843392496484171              0.3375155262D-04
   current occupation vector 
    10  3
    10  3
      31          -534.843392496559545              0.7894588006D-05
   current occupation vector 
    10  3
    10  3
      32          -534.843392496568413              0.5553332440D-05
   current occupation vector 
    10  3
    10  3
      33          -534.843392496567958              0.8573994936D-06
   current occupation vector 
    10  3
    10  3
      34          -534.843392496566025              0.3172855940D-06
   current occupation vector 
    10  3
    10  3
      35          -534.843392496569663              0.1339857367D-06
   current occupation vector 
    10  3
    10  3
      36          -534.843392496565571              0.4061737791D-07
   current occupation vector 
    10  3
    10  3
      37          -534.843392496570459              0.1778915060D-07
   current occupation vector 
    10  3
    10  3
      38          -534.843392496566707              0.8871821056D-08
   current occupation vector 
    10  3
    10  3
      39          -534.843392496567844              0.1744754341D-08
   current occupation vector 
    10  3
    10  3
      40          -534.843392496566594              0.7948394165D-09
   current occupation vector 
    10  3
    10  3
      41          -534.843392496571482              0.1912441316D-09
   current occupation vector 
    10  3
    10  3

  SCF has converged.

 Density matrix saved to file den.dat
 total electron number:   26.0000000000001     
     E(SCF)=      -534.843392496569550              0.6359134053D-10

  Eigenvector printing suppressed.

 @PUTMOS-I, Writing converged MOs to NEWMOS. 
 @PUTMOS-I, Symmetry   1 Full Blocks 26 Partial Blocksize   0
 @PUTMOS-I, Symmetry   2 Full Blocks 13 Partial Blocksize   1
 @PUTFOCK-I, Writing converged Fock matrix to NEWFOCK. 
 @PUTFOCK-I, Symmetry   1 Full Blocks 26 Partial Blocksize   0
 @PUTFOCK-I, Symmetry   2 Full Blocks 13 Partial Blocksize   1


 
  ORBITAL EIGENVALUES (ALPHA)  (1H = 27.2113834 eV)

       MO #        E(hartree)               E(eV)           FULLSYM    COMPSYM
       ----   --------------------   --------------------   -------   ---------
    1     1        -104.8837570868       -2854.0321265216     A'        A'  (1)
    2     2         -20.6606428873        -562.2046748977     A'        A'  (1)
    3     3         -10.6037099739        -288.5416175619     A'        A'  (1)
    4     4          -8.0704121208        -219.6070784156     A'        A'  (1)
    5     5          -8.0681575216        -219.5457276519     A'        A'  (1)
    6   105          -8.0679944055        -219.5412890364     A''       A'' (2)
    7     6          -1.3632375363         -37.0955792668     A'        A'  (1)
    8     7          -1.0343529158         -28.1461737629     A'        A'  (1)
    9     8          -0.6345882492         -17.2680241505     A'        A'  (1)
   10   106          -0.6043008383         -16.4438617994     A''       A'' (2)
   11     9          -0.5911394695         -16.0857227467     A'        A'  (1)
   12    10          -0.4472480468         -12.1702380755     A'        A'  (1)
   13   107          -0.4351108230         -11.8399674257     A''       A'' (2)
  +++++++++++++++++++++++++++++++++++++++++++++++++++++++++++++++++++++++++++++
   14    11           0.0108430065           0.2950532078     A'        A'  (1)
   15    12           0.0607618799           1.6534148093     A'        A'  (1)
   16    13           0.1019037725           2.7729426224     A'        A'  (1)
   17   108           0.1173783748           3.1940279584     A''       A'' (2)
   18    14           0.1221486538           3.3238338507     A'        A'  (1)
   19    15           0.1539111834           4.1881362209     A'        A'  (1)
   20    16           0.1660503557           4.5184598921     A'        A'  (1)
   21    17           0.1756402841           4.7794151117     A'        A'  (1)
   22   109           0.1925420647           5.2393359438     A''       A'' (2)
   23    18           0.2236157596           6.0848941686     A'        A'  (1)
   24   110           0.2517669882           6.8509280441     A''       A'' (2)
   25    19           0.2914417187           7.9305323471     A'        A'  (1)
   26    20           0.3312876584           9.0147954894     A'        A'  (1)
   27    21           0.3382454139           9.2041256416     A'        A'  (1)
   28   111           0.3791695158          10.3177270675     A''       A'' (2)
   29    22           0.3901824440          10.6174040790     A'        A'  (1)
   30   112           0.4243122185          11.5461224584     A''       A'' (2)
   31    23           0.4573481534          12.4450759486     A'        A'  (1)
   32    24           0.5077685638          13.8170850678     A'        A'  (1)
   33    25           0.5939356572          16.1618108824     A'        A'  (1)
   34   113           0.6166548118          16.7800305092     A''       A'' (2)
   35    26           0.6671628356          18.1544237101     A'        A'  (1)
   36    27           0.6835673085          18.6008121114     A'        A'  (1)
   37   114           0.7425173696          20.2049248262     A''       A'' (2)
   38    28           0.7482877716          20.3619454466     A'        A'  (1)
   39    29           0.7651196525          20.8199642109     A'        A'  (1)
   40   115           0.7724426251          21.0192324251     A''       A'' (2)
   41    30           0.8320025559          22.6399405390     A'        A'  (1)
   42    31           0.8473002437          23.0562117866     A'        A'  (1)
   43   116           0.8558816365          23.2897233566     A''       A'' (2)
   44   117           0.9012983796          24.5255757649     A''       A'' (2)
   45    32           0.9024933512          24.5580925961     A'        A'  (1)
   46    33           0.9366076064          25.4863886744     A'        A'  (1)
   47   118           0.9368177754          25.4921076620     A''       A'' (2)
   48    34           0.9580604831          26.0701511249     A'        A'  (1)
   49   119           0.9585705941          26.0840319529     A''       A'' (2)
   50    35           1.0124809009          27.5510059791     A'        A'  (1)
   51    36           1.0240014501          27.8644960598     A'        A'  (1)
   52    37           1.1161701973          30.3725351788     A'        A'  (1)
   53   120           1.1245444490          30.6004101515     A''       A'' (2)
   54    38           1.1441905517          31.1350077845     A'        A'  (1)
   55   121           1.1819515640          32.1625371670     A''       A'' (2)
   56    39           1.2298407185          33.4656673133     A'        A'  (1)
   57    40           1.2782693651          34.7834777822     A'        A'  (1)
   58   122           1.3560596992          36.9002603896     A''       A'' (2)
   59   123           1.4198309995          38.6355656913     A''       A'' (2)
   60    41           1.4593426148          39.7107314040     A'        A'  (1)
   61   124           1.5255994040          41.5136702975     A''       A'' (2)
   62    42           1.5363474084          41.8061383645     A'        A'  (1)
   63    43           1.5864438982          43.1693331572     A'        A'  (1)
   64    44           1.6352420023          44.4971970769     A'        A'  (1)
   65    45           1.7355712392          47.2272944076     A'        A'  (1)
   66    46           1.8210919198          49.5544304357     A'        A'  (1)
   67   125           2.1738916845          59.1546000974     A''       A'' (2)
   68   126           2.2159419646          60.2988463912     A''       A'' (2)
   69    47           2.2337781653          60.7841940855     A'        A'  (1)
   70    48           2.2702910173          61.7777593022     A'        A'  (1)
   71    49           2.3077091215          62.7959576821     A'        A'  (1)
   72   127           2.3116727116          62.9038124516     A''       A'' (2)
   73    50           2.3257406441          63.2866203552     A'        A'  (1)
   74    51           2.3748263882          64.6223113571     A'        A'  (1)
   75    52           2.4420748891          66.4522360991     A'        A'  (1)
   76   128           2.4423696714          66.4602575338     A''       A'' (2)
   77   129           2.4664879995          67.1165506050     A''       A'' (2)
   78   130           2.4806069058          67.5007455790     A''       A'' (2)
   79    53           2.5029339052          68.1082941188     A'        A'  (1)
   80   131           2.5992657041          70.7296156337     A''       A'' (2)
   81    54           2.6571795070          72.3055303283     A'        A'  (1)
   82    55           2.7978119399          76.1323333788     A'        A'  (1)
   83    56           2.8705500643          78.1116383692     A'        A'  (1)
   84   132           2.8997194347          78.9053772889     A''       A'' (2)
   85    57           2.9753534582          80.9634837012     A'        A'  (1)
   86    58           3.0584167742          83.2237514405     A'        A'  (1)
   87   133           3.0645507299          83.3906648593     A''       A'' (2)
   88   134           3.1177464004          84.8381926457     A''       A'' (2)
   89    59           3.1290726512          85.1463955970     A'        A'  (1)
   90    60           3.2099440437          87.3470180652     A'        A'  (1)
   91    61           3.2521747271          88.4961733836     A'        A'  (1)
   92   135           3.3596991099          91.4220605871     A''       A'' (2)
   93    62           3.3898546122          92.2426335218     A'        A'  (1)
   94    63           3.4405149222          93.6211706414     A'        A'  (1)
   95    64           3.7982591294         103.3558854230     A'        A'  (1)
   96   136           3.8864795367         105.7564847499     A''       A'' (2)
   97    65           3.9612057498         107.7898883836     A'        A'  (1)
   98    66           4.0051950730         108.9868987220     A'        A'  (1)
   99   137           4.0458604215         110.0934591120     A''       A'' (2)
  100   138           4.2174339633         114.7622125404     A''       A'' (2)
  101    67           4.3867915952         119.3706679929     A'        A'  (1)
  102   139           4.4061356381         119.8970461616     A''       A'' (2)
  103    68           4.4261004850         120.4403172656     A'        A'  (1)
  104    69           4.7381892726         128.9326849186     A'        A'  (1)
  105    70           5.1092750706         139.0304428432     A'        A'  (1)
  106    71           5.6868248483         154.7463712748     A'        A'  (1)
  107    72           5.9207661020         161.1122364236     A'        A'  (1)
  108   140           6.6042325649         179.7103043853     A''       A'' (2)
  109    73           6.6597262101         181.2203632412     A'        A'  (1)
  110   141           6.7064525757         182.4918522920     A''       A'' (2)
  111    74           6.7378292351         183.3456546009     A'        A'  (1)
  112   142           6.7753032792         184.3653751828     A''       A'' (2)
  113    75           6.8980931249         187.7066567499     A'        A'  (1)
  114   143           7.1179567217         193.6894493777     A''       A'' (2)
  115    76           7.1530725626         194.6449999893     A'        A'  (1)
  116    77           7.1931735006         195.7362019883     A'        A'  (1)
  117   144           7.1938030352         195.7533324949     A''       A'' (2)
  118    78           7.6234582538         207.4448453784     A'        A'  (1)
  119    79           7.8142512110         212.6365856861     A'        A'  (1)
  120   145          10.3553334024         281.7829474478     A''       A'' (2)
  121    80          10.3579065785         281.8529671302     A'        A'  (1)
  122   146          10.3937348931         282.8279051339     A''       A'' (2)
  123    81          10.4417302011         284.1339238602     A'        A'  (1)
  124    82          10.6100854059         288.7151018855     A'        A'  (1)
  125   147          12.6853131228         345.1849189334     A''       A'' (2)
  126    83          12.7346981383         346.5287535252     A'        A'  (1)
  127    84          13.2139418399         359.5696376319     A'        A'  (1)
  128    85          18.2706503902         497.1696727360     A'        A'  (1)
  129   148          26.0586805650         709.0927477518     A''       A'' (2)
  130    86          26.4971397860         721.0238297189     A'        A'  (1)
  131    87          26.7235479707         727.1847096396     A'        A'  (1)
  132    88          28.7623611689         782.6636372552     A'        A'  (1)
  133   149          36.9017161881        1004.1467473135     A''       A'' (2)
  134   150          36.9026947672        1004.1733758043     A''       A'' (2)
  135    89          36.9028201846        1004.1767885847     A'        A'  (1)
  136    90          36.9055352675        1004.2506697453     A'        A'  (1)
  137   151          36.9110409480        1004.4004869301     A''       A'' (2)
  138    91          36.9111727597        1004.4040737079     A'        A'  (1)
  139    92          36.9152884884        1004.5160683791     A'        A'  (1)
  140   152          43.8877252082        1194.2457171952     A''       A'' (2)
  141    93          43.8960631031        1194.4726028484     A'        A'  (1)
  142   153          43.9075373314        1194.7848324754     A''       A'' (2)
  143    94          44.0397130588        1198.3815168677     A'        A'  (1)
  144    95          44.0952154705        1199.8918142720     A'        A'  (1)
  145   154          46.4890353858        1265.0309657786     A''       A'' (2)
  146    96          46.4905125836        1265.0711623761     A'        A'  (1)
  147   155          46.5139072113        1265.7077625580     A''       A'' (2)
  148    97          46.5396740902        1266.4089149795     A'        A'  (1)
  149    98          46.6234919349        1268.6897144875     A'        A'  (1)
  150   156          55.0249262412        1497.3043645060     A''       A'' (2)
  151    99          55.0786066669        1498.7650831504     A'        A'  (1)
  152   100          55.6395913395        1514.0302521580     A'        A'  (1)
  153   101         103.8391400308        2825.6066513045     A'        A'  (1)
  154   157         138.2194003449        3761.1410961036     A''       A'' (2)
  155   102         138.5264568772        3769.4965291291     A'        A'  (1)
  156   103         138.6826004351        3773.7454113478     A'        A'  (1)
  157   104         149.4733750247        4067.3773158884     A'        A'  (1)


  VSCF finished.

 @CHECKOUT-I, Total execution time (CPU/WALL):       70.39/      13.36 seconds.
--executable xvscf finished with status     0 in       13.43 seconds (walltime).
 --invoking executable--
/home/asmola/.local/bin/xvtran
 @GETMEM-I,  Allocated    3814 MB of main memory.
  Full RHF integral transformation
  Transformation of IIII integrals :
  1 pass through the AO integral file was required.
    14216557 AO integrals were read.
    15933126 MO integrals were written to HF2.
  Transformation of IIJJ integrals :
  1 pass through the AO integral file was required.
     6932748 AO integrals were read.
     7813260 MO integrals were written to HF2.
  Transformation of IJIJ integrals :
  1 pass through the AO integral file was required.
    13409908 AO integrals were read.
    15193828 MO integrals were written to HF2.
  Summary of active molecular orbitals: 
------------------------------------------------------------------------
 
  Index      Eigenvalue    Symmetry    Index      Eigenvalue    Symmetry
------------------------------------------------------------------------
     1      -104.8837571        1        80         7.1931735        1
     2       -20.6606429        1        81         7.6234583        1
     3       -10.6037100        1        82         7.8142512        1
     4        -8.0704121        1        83        10.3579066        1
     5        -8.0681575        1        84        10.4417302        1
     6        -1.3632375        1        85        10.6100854        1
     7        -1.0343529        1        86        12.7346981        1
     8        -0.6345882        1        87        13.2139418        1
     9        -0.5911395        1        88        18.2706504        1
    10        -0.4472480        1        89        26.4971398        1
    11        -8.0679944        2        90        26.7235480        1
    12        -0.6043008        2        91        28.7623612        1
    13        -0.4351108        2        92        36.9028202        1
    14         0.0108430        1        93        36.9055353        1
    15         0.0607619        1        94        36.9111728        1
    16         0.1019038        1        95        36.9152885        1
    17         0.1221487        1        96        43.8960631        1
    18         0.1539112        1        97        44.0397131        1
    19         0.1660504        1        98        44.0952155        1
    20         0.1756403        1        99        46.4905126        1
    21         0.2236158        1       100        46.5396741        1
    22         0.2914417        1       101        46.6234919        1
    23         0.3312877        1       102        55.0786067        1
    24         0.3382454        1       103        55.6395913        1
    25         0.3901824        1       104       103.8391400        1
    26         0.4573482        1       105       138.5264569        1
    27         0.5077686        1       106       138.6826004        1
    28         0.5939357        1       107       149.4733750        1
    29         0.6671628        1       108         0.1173784        2
    30         0.6835673        1       109         0.1925421        2
    31         0.7482878        1       110         0.2517670        2
    32         0.7651197        1       111         0.3791695        2
    33         0.8320026        1       112         0.4243122        2
    34         0.8473002        1       113         0.6166548        2
    35         0.9024934        1       114         0.7425174        2
    36         0.9366076        1       115         0.7724426        2
    37         0.9580605        1       116         0.8558816        2
    38         1.0124809        1       117         0.9012984        2
    39         1.0240015        1       118         0.9368178        2
    40         1.1161702        1       119         0.9585706        2
    41         1.1441906        1       120         1.1245444        2
    42         1.2298407        1       121         1.1819516        2
    43         1.2782694        1       122         1.3560597        2
    44         1.4593426        1       123         1.4198310        2
    45         1.5363474        1       124         1.5255994        2
    46         1.5864439        1       125         2.1738917        2
    47         1.6352420        1       126         2.2159420        2
    48         1.7355712        1       127         2.3116727        2
    49         1.8210919        1       128         2.4423697        2
    50         2.2337782        1       129         2.4664880        2
    51         2.2702910        1       130         2.4806069        2
    52         2.3077091        1       131         2.5992657        2
    53         2.3257406        1       132         2.8997194        2
    54         2.3748264        1       133         3.0645507        2
    55         2.4420749        1       134         3.1177464        2
    56         2.5029339        1       135         3.3596991        2
    57         2.6571795        1       136         3.8864795        2
    58         2.7978119        1       137         4.0458604        2
    59         2.8705501        1       138         4.2174340        2
    60         2.9753535        1       139         4.4061356        2
    61         3.0584168        1       140         6.6042326        2
    62         3.1290727        1       141         6.7064526        2
    63         3.2099440        1       142         6.7753033        2
    64         3.2521747        1       143         7.1179567        2
    65         3.3898546        1       144         7.1938030        2
    66         3.4405149        1       145        10.3553334        2
    67         3.7982591        1       146        10.3937349        2
    68         3.9612057        1       147        12.6853131        2
    69         4.0051951        1       148        26.0586806        2
    70         4.3867916        1       149        36.9017162        2
    71         4.4261005        1       150        36.9026948        2
    72         4.7381893        1       151        36.9110409        2
    73         5.1092751        1       152        43.8877252        2
    74         5.6868248        1       153        43.9075373        2
    75         5.9207661        1       154        46.4890354        2
    76         6.6597262        1       155        46.5139072        2
    77         6.7378292        1       156        55.0249262        2
    78         6.8980931        1       157       138.2194003        2
    79         7.1530726        1
------------------------------------------------------------------------
  -104.883757086808       -20.6606428873339       -10.6037099738880     
  -8.07041212081827       -8.06815752160187       -1.36323753634484     
  -1.03435291580512      -0.634588249212985      -0.591139469471375     
 -0.447248046767432       -8.06799440547310      -0.604300838279059     
 -0.435110822983019       1.084300652721853E-002  6.076187987116398E-002
  0.101903772461984       0.122148653811454       0.153911183394094     
  0.166050355678930       0.175640284121722       0.223615759595590     
  0.291441718728749       0.331287658435432       0.338245413924788     
  0.390182443975582       0.457348153367078       0.507768563792225     
  0.593935657178910       0.667162835614213       0.683567308502128     
  0.748287771602705       0.765119652495433       0.832002555924805     
  0.847300243714454       0.902493351222470       0.936607606447793     
  0.958060483057957        1.01248090088187        1.02400145006143     
   1.11617019731692        1.14419055168230        1.22984071854613     
   1.27826936509941        1.45934261482730        1.53634740836105     
   1.58644389822464        1.63524200231995        1.73557123919107     
   1.82109191977889        2.23377816526237        2.27029101733266     
   2.30770912154823        2.32574064408707        2.37482638817616     
   2.44207488911153        2.50293390518344        2.65717950702389     
   2.79781193993975        2.87055006432293        2.97535345818601     
   3.05841677422679        3.12907265115196        3.20994404368107     
   3.25217472712574        3.38985461216183        3.44051492219899     
   3.79825912941158        3.96120574978033        4.00519507295756     
   4.38679159519964        4.42610048504864        4.73818927260529     
   5.10927507064006        5.68682484826415        5.92076610201378     
   6.65972621006833        6.73782923513211        6.89809312487576     
   7.15307256261481        7.19317350062917        7.62345825381275     
   7.81425121098819        10.3579065785461        10.4417302010515     
   10.6100854058580        12.7346981383232        13.2139418399415     
   18.2706503902342        26.4971397859506        26.7235479707202     
   28.7623611688621        36.9028201846094        36.9055352674675     
   36.9111727597022        36.9152884883856        43.8960631030762     
   44.0397130587534        44.0952154704507        46.4905125836459     
   46.5396740901991        46.6234919349064        55.0786066668854     
   55.6395913394829        103.839140030802        138.526456877200     
   138.682600435073        149.473375024675       0.117378374756668     
  0.192542064723807       0.251766988227658       0.379169515780369     
  0.424312218480827       0.616654811794930       0.742517369630925     
  0.772442625064565       0.855881636528767       0.901298379593802     
  0.936817775388733       0.958570594132699        1.12454444897950     
   1.18195156395387        1.35605969924901        1.41983099952526     
   1.52559940401462        2.17389168451593        2.21594196461047     
   2.31167271163326        2.44236967142824        2.46648799946581     
   2.48060690582322        2.59926570413668        2.89971943465843     
   3.06455072987138        3.11774640041774        3.35969910986362     
   3.88647953671917        4.04586042148931        4.21743396333315     
   4.40613563813135        6.60423256486617        6.70645257572720     
   6.77530327924564        7.11795672165923        7.19380303520117     
   10.3553334024100        10.3937348930920        12.6853131227938     
   26.0586805649812        36.9017161881424        36.9026947672309     
   36.9110409480359        43.8877252082381        43.9075373314318     
   46.4890353857806        46.5139072112740        55.0249262411993     
   138.219400344917     
 @CHECKOUT-I, Total execution time (CPU/WALL):       34.37/      19.59 seconds.
--executable xvtran finished with status     0 in       19.65 seconds (walltime).
 --invoking executable--
/home/asmola/.local/bin/xintprc
 @GETMEM-I,  Allocated    3814 MB of main memory.
  Processing integrals for CCSD calculation.
  @GMOIAA-I, Processing MO integrals for spin case AA.
  @GMOIAA-I, Generation of integral list completed.
                      TYPE                NUMBER
                      ----               --------
                      PPPP              27524020
                      PPPH               9932000
                      PPHH                900748
                      PHPH                491140
                      PHHH                 89950
                      HHHH                  2356

                     TOTAL              38940214

  @FORMT2-I, Second-order MP correlation energies:
            ------------------------------------------------
            E(SCF)                  =   -534.843392496570 a.u.
            E2(AA)                  =     -0.109665893726 a.u.
            E2(AB)                  =     -0.644772158054 a.u.
            E2(TOT)                 =     -0.864103945506 a.u.
            Total MP2 energy        =   -535.707496442076 a.u.
            ------------------------------------------------
   Largest T2 amplitudes for spin case AB:
       _       _                 _       _                 _       _
   i   j   a   b             i   j   a   b             i   j   a   b
-----------------------------------------------------------------------------
[  9   9  19  19]-0.02770 [  9   9  19  15] 0.02036 [  9   9  15  19] 0.02036
[  8   8  14  14]-0.01811 [ 13  13 112 112]-0.01765 [  9   9  15  15]-0.01723
[  8   8  16  16]-0.01666 [  8   8  24  24]-0.01641 [  9   9  19  18] 0.01637
[  9   9  18  19] 0.01637 [  8   8  16  14]-0.01586 [  8   8  14  16]-0.01586
[ 10  10  26  26]-0.01580 [  8   8  24  16] 0.01551 [  8   8  16  24] 0.01551
-----------------------------------------------------------------------------
   Norm of T2AB vector (  1799624 symmetry allowed elements):  0.3470595967.
-----------------------------------------------------------------------------
 @CHECKOUT-I, Total execution time (CPU/WALL):        6.31/       8.65 seconds.
--executable xintprc finished with status     0 in        8.83 seconds (walltime).
  calling xvcc 
 --invoking executable--
/home/asmola/.local/bin/xvcc
 @GETMEM-I,  Allocated    3814 MB of main memory.
   CCSD energy will be calculated.
   The total correlation energy is -0.864103945506 a.u.
   The total correlation energy is -0.857590288989 a.u.
  Convergence information after     1 iterations: 
  Largest element of residual vector : -0.14636230E-01.
  Largest element of DIIS residual   : -0.14636230E-01.
   The total correlation energy is -0.875857678337 a.u.
  Convergence information after     2 iterations: 
  Largest element of residual vector : -0.40434792E-02.
  Largest element of DIIS residual   : -0.34101770E-02.
   The total correlation energy is -0.875132327349 a.u.
  Convergence information after     3 iterations: 
  Largest element of residual vector :  0.28486395E-02.
  Largest element of DIIS residual   :  0.26113891E-02.
   The total correlation energy is -0.877200121238 a.u.
  Convergence information after     4 iterations: 
  Largest element of residual vector :  0.75593721E-03.
  Largest element of DIIS residual   :  0.69728606E-03.
   The total correlation energy is -0.877493837579 a.u.
  Convergence information after     5 iterations: 
  Largest element of residual vector :  0.93368014E-03.
  Largest element of DIIS residual   :  0.60286038E-03.
   The total correlation energy is -0.877513822528 a.u.
  Convergence information after     6 iterations: 
  Largest element of residual vector :  0.34577370E-03.
  Largest element of DIIS residual   :  0.20169106E-03.
   The total correlation energy is -0.877521116396 a.u.
  Convergence information after     7 iterations: 
  Largest element of residual vector :  0.21730154E-03.
  Largest element of DIIS residual   :  0.11562677E-03.
   The total correlation energy is -0.877522475490 a.u.
  Convergence information after     8 iterations: 
  Largest element of residual vector : -0.70394443E-04.
  Largest element of DIIS residual   :  0.48422519E-04.
   The total correlation energy is -0.877521849372 a.u.
  Convergence information after     9 iterations: 
  Largest element of residual vector : -0.35387362E-04.
  Largest element of DIIS residual   :  0.20601427E-04.
   The total correlation energy is -0.877524045187 a.u.
  Convergence information after    10 iterations: 
  Largest element of residual vector :  0.18226739E-04.
  Largest element of DIIS residual   :  0.10403590E-04.
   The total correlation energy is -0.877524457671 a.u.
  Convergence information after    11 iterations: 
  Largest element of residual vector :  0.67677949E-05.
  Largest element of DIIS residual   : -0.44697263E-05.
   The total correlation energy is -0.877525000121 a.u.
  Convergence information after    12 iterations: 
  Largest element of residual vector : -0.38770496E-05.
  Largest element of DIIS residual   : -0.22108361E-05.
   The total correlation energy is -0.877525247328 a.u.
  Convergence information after    13 iterations: 
  Largest element of residual vector :  0.12508814E-05.
  Largest element of DIIS residual   : -0.87620303E-06.
   The total correlation energy is -0.877525320284 a.u.
  Convergence information after    14 iterations: 
  Largest element of residual vector :  0.10051533E-05.
  Largest element of DIIS residual   :  0.68598399E-06.
   The total correlation energy is -0.877525353766 a.u.
  Convergence information after    15 iterations: 
  Largest element of residual vector :  0.42023886E-06.
  Largest element of DIIS residual   :  0.25300373E-06.
   The total correlation energy is -0.877525365805 a.u.
  Convergence information after    16 iterations: 
  Largest element of residual vector :  0.29534226E-06.
  Largest element of DIIS residual   : -0.10670019E-06.
   The total correlation energy is -0.877525371278 a.u.
  Convergence information after    17 iterations: 
  Largest element of residual vector :  0.11756788E-06.
  Largest element of DIIS residual   : -0.54538688E-07.
   The total correlation energy is -0.877525373526 a.u.
  Convergence information after    18 iterations: 
  Largest element of residual vector : -0.35116585E-07.
  Largest element of DIIS residual   :  0.33444143E-07.
   The total correlation energy is -0.877525373882 a.u.
  Convergence information after    19 iterations: 
  Largest element of residual vector : -0.26500582E-07.
  Largest element of DIIS residual   : -0.15387253E-07.
   The total correlation energy is -0.877525374922 a.u.
  Convergence information after    20 iterations: 
  Largest element of residual vector :  0.11280759E-07.
  Largest element of DIIS residual   :  0.98181830E-08.
   The total correlation energy is -0.877525375022 a.u.
  Convergence information after    21 iterations: 
  Largest element of residual vector : -0.64610324E-08.
  Largest element of DIIS residual   :  0.38953143E-08.
   The total correlation energy is -0.877525375303 a.u.
  Convergence information after    22 iterations: 
  Largest element of residual vector :  0.31838555E-08.
  Largest element of DIIS residual   :  0.21948690E-08.
   The total correlation energy is -0.877525375310 a.u.
  Convergence information after    23 iterations: 
  Largest element of residual vector : -0.13636237E-08.
  Largest element of DIIS residual   :  0.64532713E-09.
   The total correlation energy is -0.877525375330 a.u.
  Convergence information after    24 iterations: 
  Largest element of residual vector :  0.45928619E-09.
  Largest element of DIIS residual   :  0.25007379E-09.
   The total correlation energy is -0.877525375327 a.u.
  Convergence information after    25 iterations: 
  Largest element of residual vector :  0.16303545E-09.
  Largest element of DIIS residual   :  0.14414459E-09.
   The total correlation energy is -0.877525375324 a.u.
  Convergence information after    26 iterations: 
  Largest element of residual vector :  0.94452416E-10.
  Largest element of DIIS residual   : -0.50911515E-10.
  Amplitude equations converged in    26iterations.
   The total correlation energy is -0.877525375322 a.u.
   The CC iterations have converged.

   Largest T1 amplitudes for spin case AA:
   i       a                 i       a                 i       a    
-----------------------------------------------------------------------------
[ 12     109    ]-0.01738 [ 10      14    ] 0.01629 [ 12     112    ]-0.01577
[...]
 term  0.459423690041204     
 final tnorm  0.822260806013750     
  norm contr. I: |<0|L dT/dx|0>|^2   0.000000000000000E+000
  norm contr. II: <0|[nabla(1+L)e-T][nabla e^T]|0>  0.459423690041204     
  total norm contribution  0.459423690041204     
 oo  2.183939059286317E-003
 vv  -1.54402837906264     
 vo -2.859791722595126E-002
  Correlated perturbed 1-el contribution to DBOC  -1.57044235722931       cm**-1
  SUM_I |dc_I/dx|^2 contribution to DBOC  0.791119467067162       cm**-1
 
 
  The total diagonal Born-Oppenheimer correction (DBOC) is:      0.0087292115 a.u.
  The total diagonal Born-Oppenheimer correction (DBOC) is:       1915.840466 cm-1
 
 Total CC energy including DBOC  -535.712188660436     
 First-order density matrix is being calculated  (Symmetry block 2, perturbation   3)
 Calculation of the contributions of <pq||rs> to dI(i,j)/dx required   3.8 seconds.
 Calculation of the contributions of <pq||rs> to dI(a,b)/dx required  10.7 seconds.
 Calculation of the contributions of <pq||rs> to dI(i,a)/dx required   5.9 seconds.
 First-order Z-vector equations are solved for 1 perturbation.
 Convergence reached after  23 iterations.
        U*G(pq,rs) contribution is being calculated
             (Symmetry block 2, perturbation   3)

 CCSD contribution to force constants 

        0.0000000000        0.0000000000        0.0000000000
        0.0000000000        0.0000000000        0.0000000000
        0.0000000000        0.0000000000        0.0000000000
        0.0000000000        0.0000000000        0.0000000000
        0.0000000000        0.0000000000        0.0000000000
        0.0000000000        0.0000000000        0.0000000000
        0.0000000000        0.0000000000        0.0000000000
        0.0000000000        0.0000000000        0.0000000000
        0.0000000000        0.0000000000        0.0000000000
        0.0000000000        0.0000000000        0.0000000000
        0.0000000000        0.0000000000        0.0000000000
        0.0000000000        0.0000000000        0.0000000000
        0.0000000000        0.0000000000        0.0000000000
        0.0000000000        0.0000000000        0.0000000000
        0.0000000000        0.0000000000        0.0000000000
        0.0000000000        0.0000000000        0.0000000000
        0.0000000000        0.0000000000        0.0000000000
        0.0000000000        0.0000000000        0.0000000000
        0.0000000000        0.0000000000        0.0000000000
        0.0000000000        0.0000000000        0.0000000000
        0.0000000000        0.0000000000        0.0000000000
        0.0000000000        0.0000000000        0.0000000000
        0.0000000000        0.0000000000        0.0000000000
        0.0000000000        0.0000000000        0.0000000000
        0.0000000000        0.0000000000        0.0000000000
        0.0000000000        0.0000000000        0.0000000000
        0.0828639609       -0.0207839026       -0.0620800583

 CCSD contribution to dipole derivatives 

        0.0000000000        0.0000000000        0.0000000000
        0.0000000000        0.0000000000        0.0000000000
        0.0000000000        0.0000000000        0.0000000000
        0.0000000000        0.0000000000        0.0000000000
        0.0000000000        0.0000000000        0.0000000000
        0.0000000000        0.0000000000        0.0000000000
        0.0000000000        0.0000000000        0.0000000000
        0.0000000000        0.0000000000        0.0000000000
        0.0000000000        0.0000000000        0.0162553981
 @CHECKOUT-I, Total execution time (CPU/WALL):      903.40/     255.27 seconds.
--executable xsdcc finished with status     0 in      255.46 seconds (walltime).
 --invoking executable--
/home/asmola/.local/bin/xanti
 @GETMEM-I,  Allocated    3814 MB of main memory.
 CCSD MO derivative gammas will be sorted to Mulliken order.
 @CHECKOUT-I, Total execution time (CPU/WALL):        6.17/       4.78 seconds.
--executable xanti finished with status     0 in        4.91 seconds (walltime).
 --invoking executable--
/home/asmola/.local/bin/xbcktrn
 @GETMEM-I,  Allocated    3814 MB of main memory.
 CCSD MO derivative gammas will be transformed to the AO basis.
 @CHECKOUT-I, Total execution time (CPU/WALL):       12.68/       2.73 seconds.
--executable xbcktrn finished with status     0 in        2.79 seconds (walltime).
 --invoking executable--
/home/asmola/.local/bin/xvdint
 @GETMEM-I,  Allocated    3814 MB of main memory.
 One- and two-electron integral derivatives are calculated
 for RHF-CC/MBPT hessians and dipole derivatives.
 Spherical gaussians are used.
  magnet F F
 Evaluation of 2el integral derivatives

                      Two-electron integral gradient
                      ------------------------------

                         O #1 x     0.0000000000
                         O #1 y     0.0000000000
                         H #2 x     0.0000000000
                         H #2 y     0.0000000000
                         CL#3 x     0.0000000000
                         CL#3 y     0.0000000000


 O #1       0.0000000000            0.0000000000           -0.0885712595
 H #2       0.0000000000            0.0000000000            0.0047974462
 CL#3       0.0000000000            0.0000000000            0.0837738133


 Evaluation of 2e integral derivatives required  122.17 seconds.
  contribution to Hessian
        0.0000000000        0.0000000000        0.0000000000
        0.0000000000        0.0000000000        0.0000000000
       -0.0885712595        0.0047974462        0.0837738133
 @CHECKOUT-I, Total execution time (CPU/WALL):      122.41/      21.24 seconds.
--executable xvdint finished with status     0 in       21.35 seconds (walltime).
 --invoking executable--
/home/asmola/.local/bin/xanti
 @GETMEM-I,  Allocated    3814 MB of main memory.
 CCSD MO gammas will be sorted to Mulliken order.
 @CHECKOUT-I, Total execution time (CPU/WALL):        9.34/      15.43 seconds.
--executable xanti finished with status     0 in       15.52 seconds (walltime).
 --invoking executable--
/home/asmola/.local/bin/xbcktrn
 @GETMEM-I,  Allocated    3814 MB of main memory.
 CCSD MO gammas will be transformed to the AO basis.
 @CHECKOUT-I, Total execution time (CPU/WALL):       18.91/       3.45 seconds.
--executable xbcktrn finished with status     0 in        3.53 seconds (walltime).
 --invoking executable--
/home/asmola/.local/bin/xvdint
 @GETMEM-I,  Allocated    3814 MB of main memory.
 One- and two-electron integral derivatives are calculated
 for RHF-CC/MBPT hessians and dipole derivatives.
 Spherical gaussians are used.
  magnet F F

                     Kinetic energy integral gradient
                     --------------------------------

                         O #1 x     0.2300855791
                         O #1 y    -0.2003112545
                         H #2 x     0.1055115818
                         H #2 y     0.2045675669
                         CL#3 x    -0.3355971609
                         CL#3 y    -0.0042563124


 O #1       0.2300855791           -0.2003112545            0.0000000000
 H #2       0.1055115818            0.2045675669            0.0000000000
 CL#3      -0.3355971609           -0.0042563124            0.0000000000



                   Nuclear attraction integral gradient
                   ------------------------------------

                         O #1 x   -24.6185172350
                         O #1 y     4.7772604513
                         H #2 x    -2.8802806222
                         H #2 y    -4.2175968657
                         CL#3 x    27.4987978572
                         CL#3 y    -0.5596635857


 O #1     -24.6185172350            4.7772604513            0.0000000000
 H #2      -2.8802806222           -4.2175968657            0.0000000000
 CL#3      27.4987978572           -0.5596635857            0.0000000000



                      Reorthonormalization gradient
                      -----------------------------

                         O #1 x     0.0000000000
                         O #1 y     0.0000000000
                         H #2 x     0.0000000000
                         H #2 y     0.0000000000
                         CL#3 x     0.0000000000
                         CL#3 y     0.0000000000


 O #1       0.0000000000            0.0000000000            0.0000000000
 H #2       0.0000000000            0.0000000000            0.0000000000
 CL#3       0.0000000000            0.0000000000            0.0000000000



                     Kinetic energy integral Hessian
                     -------------------------------


           Symmetry 1

           O #1 x      O #1 y      H #2 x      H #2 y      CL#3 x      CL#3 y

 O #1 x    0.300036
 O #1 y    0.140388   -0.046079
 H #2 x    0.070218   -0.152216   -0.074603
 H #2 y   -0.152216   -0.168259    0.155032    0.172630
 CL#3 x   -0.370254    0.011827    0.004384   -0.002816    0.365870
 CL#3 y    0.011827    0.214337   -0.002816   -0.004371   -0.009011   -0.209966


           Symmetry 2

           O #1 z      H #2 z      CL#3 z

 O #1 z   -0.363032
 H #2 z    0.155377   -0.155010
 CL#3 z    0.207655   -0.000367   -0.207289




           O #1 x      O #1 y      O #1 z      H #2 x      H #2 y      H #2 z

 O #1 x    0.300036
 O #1 y    0.140388   -0.046079
 O #1 z    0.000000    0.000000   -0.363032

 H #2 x    0.070218   -0.152216    0.000000   -0.074603
 H #2 y   -0.152216   -0.168259    0.000000    0.155032    0.172630
 H #2 z    0.000000    0.000000    0.155377    0.000000    0.000000   -0.155010

 CL#3 x   -0.370254    0.011827    0.000000    0.004384   -0.002816    0.000000
 CL#3 y    0.011827    0.214337    0.000000   -0.002816   -0.004371    0.000000
 CL#3 z    0.000000    0.000000    0.207655    0.000000    0.000000   -0.000367


           CL#3 x      CL#3 y      CL#3 z

 CL#3 x    0.365870
 CL#3 y   -0.009011   -0.209966
 CL#3 z    0.000000    0.000000   -0.207289




                   Nuclear attraction integral Hessian
                   -----------------------------------


           Symmetry 1

           O #1 x      O #1 y      H #2 x      H #2 y      CL#3 x      CL#3 y

 O #1 x  -12.415566
 O #1 y   -0.252218    9.252421
 H #2 x   -1.769555    1.696428    1.480660
 H #2 y    1.693968    0.948205   -2.250178   -1.169304
 CL#3 x   14.185120   -1.444210    0.288894    0.556210  -14.474015
 CL#3 y   -1.441750  -10.200626    0.553750    0.221099    0.888000    9.979527


           Symmetry 2

           O #1 z      H #2 z      CL#3 z

 O #1 z   12.383173
 H #2 z   -2.689339    2.942572
 CL#3 z   -9.693833   -0.253232    9.947066




           O #1 x      O #1 y      O #1 z      H #2 x      H #2 y      H #2 z

 O #1 x  -12.415566
 O #1 y   -0.252218    9.252421
 O #1 z    0.000000    0.000000   12.383173

 H #2 x   -1.769555    1.696428    0.000000    1.480660
 H #2 y    1.693968    0.948205    0.000000   -2.250178   -1.169304
 H #2 z    0.000000    0.000000   -2.689339    0.000000    0.000000    2.942572

 CL#3 x   14.185120   -1.444210    0.000000    0.288894    0.556210    0.000000
 CL#3 y   -1.441750  -10.200626    0.000000    0.553750    0.221099    0.000000
 CL#3 z    0.000000    0.000000   -9.693833    0.000000    0.000000   -0.253232


           CL#3 x      CL#3 y      CL#3 z

 CL#3 x  -14.474015
 CL#3 y    0.888000    9.979527
 CL#3 z    0.000000    0.000000    9.947066




                Highest order reorthonormalization Hessian
                ------------------------------------------


           Symmetry 1

           O #1 x      O #1 y      H #2 x      H #2 y      CL#3 x      CL#3 y

 O #1 x    0.000000
 O #1 y    0.000000    0.000000
 H #2 x    0.000000    0.000000    0.000000
 H #2 y    0.000000    0.000000    0.000000    0.000000
 CL#3 x    0.000000    0.000000    0.000000    0.000000    0.000000
 CL#3 y    0.000000    0.000000    0.000000    0.000000    0.000000    0.000000


           Symmetry 2

           O #1 z      H #2 z      CL#3 z

 O #1 z    0.000000
 H #2 z    0.000000    0.000000
 CL#3 z    0.000000    0.000000    0.000000




           O #1 x      O #1 y      O #1 z      H #2 x      H #2 y      H #2 z


           CL#3 x      CL#3 y      CL#3 z




                Electronic contributions to dipole moment
                -----------------------------------------

                               au             Debye

                    x      1.77750241      4.51796126
                    y      0.42476647      1.07964885

  Conversion factor used: 1 a.u. =   2.54174691 Debye 



   Electronic contributions to static part of dipole moment derivatives
   --------------------------------------------------------------------


                     Total dipole moment derivatives
                     -------------------------------


           Symmetry 1
                              Ex             Ey

               O #1 x    -8.79625234    -0.08234517
               O #1 y    -0.30301001    -8.79964994
               H #2 x    -0.43403031     0.09134402
               H #2 y     0.35958444    -0.36008573
               CL#3 x   -16.76971735    -0.00899886
               CL#3 y    -0.05657444   -16.84026432

           Symmetry 2
                              Ez

               O #1 z    -8.43031004
               H #2 z    -0.69992814
               CL#3 z   -16.86976183



                       Ex          Ey          Ez

      O #1    x   -8.796252   -0.082345    0.000000
      O #1    y   -0.303010   -8.799650    0.000000
      O #1    z    0.000000    0.000000   -8.430310

      H #2    x   -0.434030    0.091344    0.000000
      H #2    y    0.359584   -0.360086    0.000000
      H #2    z    0.000000    0.000000   -0.699928

      CL#3    x  -16.769717   -0.008999    0.000000
      CL#3    y   -0.056574  -16.840264    0.000000
      CL#3    z    0.000000    0.000000  -16.869762

 Evaluation of 1e integral derivatives required    1.58 seconds.
 Evaluation of 2el integral derivatives

                      Two-electron integral gradient
                      ------------------------------

                         O #1 x    11.3613372545
                         O #1 y    -2.3567374318
                         H #2 x     1.5258295094
                         H #2 y     2.2359566364
                         CL#3 x   -12.8871667639
                         CL#3 y     0.1207807953


 O #1      11.3613372545           -2.3567374318            0.0000000000
 H #2       1.5258295094            2.2359566364            0.0000000000
 CL#3     -12.8871667639            0.1207807953            0.0000000000


 Evaluation of 2e integral derivatives required  301.64 seconds.

                            Molecular gradient
                            ------------------

                         O #1 x    -0.0387463253
                         O #1 y     0.2383918854
                         H #2 x    -0.1171904414
                         H #2 y    -0.2486904450
                         CL#3 x     0.1559367668
                         CL#3 y     0.0102985596


 O #1      -0.0387463253            0.2383918854            0.0000000000
 H #2      -0.1171904414           -0.2486904450            0.0000000000
 CL#3       0.1559367668            0.0102985596            0.0000000000


  Molecular gradient norm 0.398E+00

                            Molecular hessian
                            -----------------


           Symmetry 1

           O #1 x      O #1 y      H #2 x      H #2 y      CL#3 x      CL#3 y

 O #1 x    2.069354
 O #1 y    1.334050    4.909719
 H #2 x   -0.288357   -2.109082    0.442807
 H #2 y   -1.664333   -5.361598    1.729696    5.323305
 CL#3 x   -1.780997    0.561629   -0.070624    0.034349    1.851621
 CL#3 y    0.330283    0.451880   -0.018304    0.045620   -0.311979   -0.497500


           Symmetry 2

           O #1 z      H #2 z      CL#3 z

 O #1 z   -0.032521
 H #2 z    0.123490   -0.091813
 CL#3 z   -0.090969   -0.021920    0.112889




           O #1 x      O #1 y      O #1 z      H #2 x      H #2 y      H #2 z

 O #1 x    2.069354
 O #1 y    1.334050    4.909719
 O #1 z    0.000000    0.000000   -0.032521

 H #2 x   -0.288357   -2.109082    0.000000    0.442807
 H #2 y   -1.664333   -5.361598    0.000000    1.729696    5.323305
 H #2 z    0.000000    0.000000    0.123490    0.000000    0.000000   -0.091813

 CL#3 x   -1.780997    0.561629    0.000000   -0.070624    0.034349    0.000000
 CL#3 y    0.330283    0.451880    0.000000   -0.018304    0.045620    0.000000
 CL#3 z    0.000000    0.000000   -0.090969    0.000000    0.000000   -0.021920


           CL#3 x      CL#3 y      CL#3 z

 CL#3 x    1.851621
 CL#3 y   -0.311979   -0.497500
 CL#3 z    0.000000    0.000000    0.112889




                           Total dipole moment
                           -------------------

                               au             Debye

                    x     -0.23441472     -0.59582289
                    y     -0.66260885     -1.68418401

  Conversion factor used: 1 a.u. =   2.54174691 Debye 



                     Total dipole moment derivatives
                     -------------------------------


           Symmetry 1
                              Ex             Ey

               O #1 x    -0.22772659     0.04985656
               O #1 y     0.06121282    -0.03382208
               H #2 x     0.16334978    -0.07712700
               H #2 y    -0.11341217     0.03961679
               CL#3 x     0.06437696     0.02727068
               CL#3 y     0.05219917    -0.00579476

           Symmetry 2
                              Ez

               O #1 z    -0.28015668
               H #2 z     0.27645958
               CL#3 z     0.00369707



                       Ex          Ey          Ez

      O #1    x   -0.227727    0.049857    0.000000
      O #1    y    0.061213   -0.033822    0.000000
      O #1    z    0.000000    0.000000   -0.280157

      H #2    x    0.163350   -0.077127    0.000000
      H #2    y   -0.113412    0.039617    0.000000
      H #2    z    0.000000    0.000000    0.276460

      CL#3    x    0.064377    0.027271    0.000000
      CL#3    y    0.052199   -0.005795    0.000000
      CL#3    z    0.000000    0.000000    0.003697

  Molecular gradient does not satisfy rotational invariance condition.
   rotational invariance in yz-plane :        0.0000E+00
   rotational invariance in xz-plane :        0.0000E+00
   rotational invariance in xy-plane :        -.6005E-02
 @CHECKOUT-I, Total execution time (CPU/WALL):      303.30/      43.00 seconds.
--executable xvdint finished with status     0 in       43.11 seconds (walltime).
 --invoking executable--
/home/asmola/.local/bin/xjoda
  @GTFLGS-I, Hessian will be transformed to curvilinear coordinates.
  @GTFLGS-I, Hessian will be transformed to curvilinear coordinates.
  igrd and ihes are                      0                     1
  gradient from JOBARC 
  -0.038746325313718   0.238391885444082   0.000000000000000
  -0.117190441449723  -0.248690445045962   0.000000000000000
   0.155936766763459   0.010298559601887   0.000000000000000
 
  @PROJFCM-I, Projecting force constant matrix onto totally symmetric subspace.
  Largest difference between matrix elements of symmetrized
  and unsymmetrized FCM :     0.0000000000E+00.
 
  Summary of diagonal Born-Oppenheimer correction at the correlated level
  The total diagonal Born-Oppenheimer correction (DBOC) is:      0.0087292115 a.u.
  The total diagonal Born-Oppenheimer correction (DBOC) is:       1915.840466 cm-1
  The total diagonal Born-Oppenheimer correction (DBOC) is:            22.919 kJ/mole
  hellooooooo 
  readis is  F
 
 @CHECKOUT-I, Total execution time (CPU/WALL):        0.07/       0.12 seconds.
--executable xjoda finished with status     0 in        0.17 seconds (walltime).
  The final electronic energy is      -535.712188660435572 a.u. 
  This computation required                         2935.20 seconds (walltime).
