 --invoking executable--
/home/asmola/.local/bin/xjoda


   *************************************************************************
         <<<     CCCCCC     CCCCCC   |||     CCCCCC     CCCCCC   >>>
       <<<      CCC        CCC       |||    CCC        CCC         >>>
      <<<      CCC        CCC        |||   CCC        CCC            >>>
    <<<        CCC        CCC        |||   CCC        CCC              >>>
      <<<      CCC        CCC        |||   CCC        CCC            >>>
       <<<      CCC        CCC       |||    CCC        CCC         >>>
         <<<     CCCCCC     CCCCCC   |||     CCCCCC     CCCCCC   >>>
   *************************************************************************

     ****************************************************************
     * CFOUR Coupled-Cluster techniques for Computational Chemistry *
     ****************************************************************
 

   Department of Chemistry                Institut fuer Physikalische Chemie
   University of Florida                  Universitaet Mainz
   Gainesville, FL 32611, USA             D-55099 Mainz, Germany

   Department of Chemistry                Fakultaet fuer Chemie und Biowiss.
   Johns Hopkins University               Karlsruher Institut fuer Technologie
   Baltimore, MD 21218, USA               D-76131 Karlsruhe, Germany

   Department of Chemistry                Department of Physical Chemistry
   Southern Methodist University          Eotvos Lorand University
   Dallas, TX 75275, USA                  H-1053 Budapest, Hungary

 
                       Version 2.1
 
                     vincent.theory.phys.ucl.ac.uk                     
                     Fri 31 Jan 02:22:39 GMT 2025                      
                     integer*8 version is running
 
********************************************************************************
*                          Input from ZMAT file                                *
********************************************************************************
Hypochlorous acid DBOC calculation                                              
O                                                                               
H 1 ROH                                                                         
CL 1 ROCL 2 A                                                                   
                                                                                
ROH=1.850000000000001                                                           
ROCL=1.683                                                                      
A=107.0                                                                         
                                                                                
                                                                                
*CFOUR(CALC=CCSD,BASIS=AUG-PCVTZ,SCF_CONV=10                                    
CC_CONV=10,DBOC=ON,MEMORY=500000000)                                            
********************************************************************************
  @GTFLGS-I, Hessian will be transformed to curvilinear coordinates.
    -------------------------------------------------------------------
                    CFOUR Control Parameters 
    -------------------------------------------------------------------
        External           Internal           Value            Units
          Name               Name
    -------------------------------------------------------------------
       ABCDTYPE             IABCDT         STANDARD    [  0]    ***   
       ANHARMONIC           IANHAR         OFF         [  0]    ***   
       ANH_ALGORIT          IANALG         STANDARD    [  0]    ***   
       ANH_DERIVAT          IANDER         SECOND      [  1]    ***   
       ANH_MODE             ANHMOD         VIBRATION   [  0]    ***   
       ANH_STEPSIZ          ICUBST             50000          x 10-6  
       ANH_SYMMETR          IANHSM         ABELIAN     [  0]    ***   
       AO_LADDERS           IAOLAD         SINGLEPASS  [  1]    ***   
       AV_SCF               IAVSCF         OFF         [  0]    ***   
       BASIS                IBASIS         AUG-PCVTZ   [ 51]    ***   
       BOTHVECTORS          BOTHVC         OFF         [  0]    ***   
       BOX_POTENT           IPIAB          OFF         [  0]    ***   
       BREIT                IBREIT         OFF         [  0]    ***   
       BRUCK_CONV           IBRTOL          10D-  4             ***   
       BRUECKNER            IBRKNR         OFF         [  0]    ***   
       BUFFERSIZE           IBUFFS              4096            ***   
       CACHE_RECS           ICHREC             10               ***   
       CALCLEVEL            ICLLVL         CCSD        [ 10]    ***   
       CCORBOPT             ICCORB         OFF         [  0]  x 0.01  
       CC_CONV              ICCCNV          10D- 10             ***   
       CC_EXPORDER          ICCEOR              5               ***   
       CC_EXTRAPOL          ICCEXT         DIIS        [  1]    ***   
       CC_GUESS             ICCGES         MP2         [  0]    ***   
       CC_MAXCYC            ICCCYC            100              cycles 
       CC_PROGRAM           ICCPRO         VCC         [  0]    ***   
       CHARGE               ICHRGE              0               ***   
       CHOLESKY             ICHOLE         OFF         [  0]    ***   
       CIS_CONV             ICISTL              5               ***   
       COMM_SIZE            IPSIZE            ***               ***   
       CONSTANT             ICONST         OLD         [  1]    ***   
       CONTINUUM            ICONTU         NONE        [  0]    ***   
       CONTRACTION          ICNTYP         GENERAL     [  1]    ***   
       COORDINATES          ICOORD         INTERNAL    [  0]    ***   
       CPHF_CONVER          ICPHFT          10D- 16             ***   
       CPHF_MAXCYC          ICPHFC             64              cycles 
       CUBIC                ICUBIC         OFF         [  0]    ***   
       CURVILINEAR          ICURVY         ON          [  1]    ***   
       DBOC                 IDBOC          ON          [  1]    ***   
       DCT                  IDCT           OFF         [  0]    ***   
       DERIV_LEV            IDRLVL         SECOND      [  2]    ***   
       DEVMEM_SIZE          IDVMEM          50000000           MByte  
       DIAG_MRCC            IEOMST          10D-  0             ***   
       DIFF_TYPE            IDIFTY         RELAXED     [  0]    ***   
       DIRECT               IDIRCT         OFF         [  0]    ***   
       DROPMO               IDRPMO      NONE         
       ECP                  IECP           OFF         [  0]    ***   
       EIGENVECTOR          IVEC                1               ***   
       EL_ANHARM            IELANH         OFF         [  0]    ***   
       EOMFOLLOW            IEOMSR         ENERGY      [  0]    ***   
       EOMIP                IEOMIP         OFF         [  0]    ***   
       EOMLEVEL             HBARFM         SAME        [  0]    ***   
       EOM_MRCC             IMRCCE         NEW         [  1]    ***   
       EOM_NONIT            EOMNON         OFF         [  0]    ***   
       EOM_NSING            IEOMSI          10D-  0             ***   
       EOM_NSTATES          IMRCCD         DAVIDSON    [  0]    ***   
       EOM_NTRIP            IEOMTR          10D-  0             ***   
       EOM_ORDER            IEXORD         ENERGY      [  0]    ***   
       EOM_PROPSTA          IEOMST              0               ***   
       ESTATE_CONV          IEXTOL          10D-  5             ***   
       ESTATE_DIAG          IEXDIG         ITERATIVE   [  0]    ***   
       ESTATE_LOCK          IESLOC         ON          [  1]    ***   
       ESTATE_MAXC          IEXMXC             40               ***   
       ESTATE_PROP          IEXPRP         OFF         [  0]    ***   
       EVAL_HESS            IRECAL              0            # of cyc.
       EXCITATION           IEXCIT              0               ***   
       EXCITE               IEXCIT         NONE        [  0]    ***   
       EXTERN_POT           IEXPOT         OFF         [  0]    ***   
       FCGRADNEW            IFCGNW         OFF         [  0]    ***   
       FC_FIELD             IFINFC              0             x 10-6  
       FD_CALTYPE           IFDCAL         GRADONLY    [  0]    ***   
       FD_PROJECT           IFDPRJ         OFF         [  1]    ***   
       FD_STEPSIZE          IDISFD              0            10-4 bohr
       FD_USEGROUP          IFDGRP         FULL        [  0]    ***   
       FILE_RECSIZ          IFLREC              4096           words  
       FINITE_PERT          IFIPER              0             x 10-6  
       FIXGEOM              IFIXGM         OFF         [  0]    ***   
       FOCK                 IFOCK          AO          [  1]    ***   
       FREQ_ALGORI          IVIALG         STANDARD    [  0]    ***   
       FROZEN_CORE          IFROCO         OFF         [  0]    ***   
       GAMMA_ABCD           IGABCD         STORE       [  0]    ***   
       GAMMA_ABCI           IGABCI         STORE       [  0]    ***   
       GENBAS_1             IGNBS1              0               ***   
       GENBAS_2             IGNBS2              0               ***   
       GENBAS_3             IGNBS3              0               ***   
       GENBAS_4             IGNBS4              0               ***   
       GEO_CONV             ICONTL              5              H/bohr 
       GEO_MAXCYC           IOPTCY             50               ***   
       GEO_MAXSTEP          IMXSTP            300            millibohr
       GEO_METHOD           INR            SINGLE_POINT[  5]    ***   
       GIAO                 IGIAO          OFF         [  1]    ***   
       GIMIC                IGIMIC         OFF         [  0]    ***   
       GRID                 IGRID          OFF         [  0]    ***   
       GRID_ALGO            IGALGO         SERIAL      [  0]    ***   
       GUESS                IGUESS         MOREAD      [  0]    ***   
       HBAR                 IHBAR          OFF         [  0]    ***   
       HESS_TYPE            IHESTP         SCF         [  0]    ***   
       HF2_FILE             IHF2Fl         USE         [  1]    ***   
       HFSTABILITY          ISTABL         OFF         [  0]    ***   
       INCORE               INCORE         OFF         [  0]    ***   
       INPUT_MRCC           IMRCC          ON          [  1]    ***   
       INTEGRALS            INTTYP         VMOL        [  1]    ***   
       JODA_PRINT           IJPRNT              0               ***   
       KEYWORD_OUT          IDMPKW         NO          [  0]    ***   
       LINDEP_TOL           ILINDP              8               ***   
       LINEQ_CONV           IZTACN          10D-  7           cycles  
       LINEQ_EXPOR          ILMAXD              5               ***   
       LINEQ_MAXCY          ILMAXC            100               ***   
       LINEQ_TYPE           ILTYPE         DIIS        [  1]    ***   
       LOCK_ORBOCC          ILOCOC         OFF         [  0]    ***   
       MEMORY_SIZE          IMEMSZ         500000000           words  
       MEM_UNIT             IMEMU          INTEGERWORDS[  0]    ***   
       MRCC                 IMRCCC         OFF         [  0]    ***   
       MULTIPLICTY          IMULTP              1               ***   
       NACOUPLING           IVCOUP         OFF         [  0]    ***   
       NEGEVAL              IDIE           ABORT       [  0]    ***   
       NEWNORM              INEWNO         OFF         [  0]    ***   
       NON-HF               INONHF         OFF         [  0]    ***   
       NTOP_TAMP            ITOPT2             15               ***   
       NUC_MODEL            INUCMO         POINT       [  0]    ***   
       OCCUPATION           IOCCU   ESTIMATED BY SCF 
       OPEN-SHELL           IOPEN          SPIN-ORBITAL[  0]    ***   
       OPTVIB               IOPTVB         OFF         [  0]    ***   
       ORBITALS             IORBTP         STANDARD    [  0]    ***   
       PARALLEL             IPARAL         ON          [  1]    ***   
       PARA_INT             IPINTS         ON          [  1]    ***   
       PARA_PRINT           IPPRIN              0               ***   
       PERT_ORB             IPTORB         STANDARD    [  0]    ***   
       POINTS               IGRDFD              0               ***   
       PRINT                IPRNT               0               ***   
       PROPS                IPROPS         OFF         [  0]    ***   
       PROP_INTEGR          IINTYP         INTERNAL    [  0]    ***   
       PSI                  IPSI           OFF         [  0]    ***   
       QC_ALG               IQCALG         FLM         [  0]    ***   
       QC_LINALG            IQCLIN         TRIDIAG     [  2]    ***   
       QC_MAXCYC            IQCMAX          10D-100           cycles  
       QC_MAXSCFCY          IQCMSC          10D- 15           cycles  
       QC_RTRUST            IQCRTR          10D-  0           x 10-3  
       QC_SKIPSCF           IQCSKI         OFF         [  0]    ***   
       QC_START             IQCSTA          10D-  1             ***   
       QRHFGUESS            IQGUES         OFF         [  0]    ***   
       QUARTIC              IQUART         OFF         [  0]    ***   
       RAMAN_INT            IRAMIN         OFF         [  0]    ***   
       RAMAN_ORB            IRAMRE         UNRELAXED   [  0]    ***   
       RDO                  IRDOFM         ON          [  1]    ***   
       REDUCE_REPR          REDREP         Ir          [  0]    ***   
       REFERENCE            IREFNC         RHF         [  0]    ***   
       RELATIVIST           IRELAT         OFF         [  0]    ***   
       RELAX_DENS           IRDENS         ON          [  1]    ***   
       RESET_FLAGS          IRESET         OFF         [  0]    ***   
       RESTART_CC           ICCRES         OFF         [  0]    ***   
       ROT_EVEC             ROTVEC              0               ***   
       SAVE_INTS            ISVINT         OFF         [  0]    ***   
       SCALE_ON             ISTCRT              0               ***   
       SCF_CONV             ISCFCV          10D- 10             ***   
       SCF_DAMPING          IDAMP               0             x 10-3  
       SCF_EXPORDE          IRPPOR              6               ***   
       SCF_EXPSTAR          IRPPLS              8               ***   
       SCF_EXTRAPO          IRPP           ON          [  1]    ***   
       SCF_MAXCYC           ISCFCY            150              cycles 
       SCF_NOSTOP           ISCFST         OFF         [  0]    ***   
       SCF_PRINT            ISCFPR              0               ***   
       SCF_PROG             ISCFPR         SCF         [  0]    ***   
       SD_FIELD             IFINSD              0             x 10-6  
       SOPERT               IPERSO         OFF         [  0]    ***   
       SPHERICAL            IDFGHI         ON          [  1]    ***   
       SPINORBIT            ISOCAL         OFF         [  0]    ***   
       SPINROTATIO          ISRCON         OFF         [  0]    ***   
       SPIN_FLIP            ISPFLP         OFF         [  0]    ***   
       SPIN_ORBIT           ISPORB         OFF         [  0]    ***   
       SPIN_SCAL            ISCSMP         OFF         [  0]    ***   
       STEEPSCALE           ISTPSC              1000          x 10-3  
       SUBGROUP             ISUBGP         DEFAULT     [  0]    ***   
       SUBGRPAXIS           ISBXYZ         X           [  0]    ***   
       SYMMETRY             ISYM           ON          [  0]    ***   
       SYM_CHECK            ISYMCK         OVERRIDE    [  1]    ***   
       T3_EXTRAPOL          IT3EXT         OFF         [  0]    ***   
       T4_EXTRAPOL          IT4EXP         OFF         [  0]    ***   
       TAMP_SUM             IEVERY              5               ***   
       TESTSUITE            ITESTS         OFF         [  0]    ***   
       THERMOCH             ITHERM         OFF         [  0]    ***   
       TOL_CHOLESK          ITOLCH          10D-  4             ***   
       TRANGRAD             IRESRM         OFF         [  0]    ***   
       TRANS_INV            ITRAIN         IGNORE      [  1]    ***   
       TREAT_PERT           ITREAT         SIMULTANEOUS[  0]    ***   
       TRIP_ALGORI          ITRALG         NORMAL      [  0]    ***   
       UIJ_THRESHO          IUIJTH              1               ***   
       UNITS                IUNITS         ANGSTROM    [  0]    ***   
       UNOS                 IUNOS          OFF         [  0]    ***   
       UPDATE_HESS          IHUPDT         ON          [  1]    ***   
       VIBPHASE             ISETPH         STANDARD    [  0]    ***   
       VIBRATION            IVIB           ANALYTIC    [  1]    ***   
       VIB_ALGORIT          IGEALG         STANDARD    [  0]    ***   
       VNATORB              IVNORB         OFF         [  0]    ***   
       VTRAN                IVTRAN         FULL/PARTIAL[  0]    ***   
       XFIELD               IXEFLD              0             x 10-6  
       XFORM_TOL            IXFTOL          10D- 11             ***   
       YFIELD               IYEFLD              0             x 10-6  
       ZFIELD               IZEFLD              0             x 10-6  
       ZSCALE_EXP           IZEXPS         OFF         [  0]    ***   
    -------------------------------------------------------------------
   3 entries found in Z-matrix 
   Job Title : Hypochlorous acid DBOC calculation                                              
   There are  3 unique internal coordinates.
   Of these,  0 will be optimized.
   User supplied Z-matrix: 
--------------------------------------------------------------------------------
       SYMBOL    BOND      LENGTH    ANGLE     ANGLE     DIHED     ANGLE
                  TO      (ANGST)    WRT      (DEG)      WRT      (DEG)
--------------------------------------------------------------------------------
        O    
        H          1         ROH  
        CL         1         ROCL       2        A    
                  *Initial values for internal coordinates* 
                      Name             Value
                        ROH             1.8500000000
                        ROCL            1.6830000000
                        A             107.0000000000
--------------------------------------------------------------------------------
   Rotational constants (in cm-1): 
          0.4553499056             0.4927621306             5.9974831545
   Rotational constants (in MHz): 
      13651.0486559877         14772.6391044566        179800.0468598559
********************************************************************************
   The full molecular point group is C s .
   The largest Abelian subgroup of the full molecular point group is C s .
   The computational point group is C s .
********************************************************************************
--------------------------------------------------------------------------------
   Analysis of internal coordinates specified by Z-matrix 
--------------------------------------------------------------------------------
   *The nuclear repulsion energy is   48.215763534420525 a.u.
   *There are   3 degrees of freedom within the tot. symm. molecular subspace.
   *Z-matrix requests optimization of   0 coordinates.
   *The optimization is constrained.
   *The following   3 parameters can have non-zero 
    derivatives within the totally symmetric subspace:
             A    [ 3]  ROH  [ 1]  ROCL [ 2]
   *The following   0 parameters are to be optimized:

   *The following coordinates must be varied in an  unconstrained optimization.
             A    [ 3]  ROH  [ 1]  ROCL [ 2]
--------------------------------------------------------------------------------


 ----------------------------------------------------------------
         Coordinates used in calculation (QCOMP) 
 ----------------------------------------------------------------
 Z-matrix   Atomic            Coordinates (in bohr)
  Symbol    Number           X              Y              Z
 ----------------------------------------------------------------
     O         8        -2.10439630     0.26562740     0.00000000
     H         1        -3.43901819    -2.96558892     0.00000000
     CL       17         1.06167532    -0.03602900     0.00000000
 ----------------------------------------------------------------
 
   Interatomic distance matrix (Angstroms) 
 
                 O             H             CL   
                [ 1]        [ 2]        [ 3]
  O    [ 1]     0.00000
  H    [ 2]     1.85000     0.00000
  CL   [ 3]     1.68300     2.84176     0.00000
 rotcon2
   Rotational constants (in cm-1): 
          5.9974831545             0.4927621306             0.4553499056
   Rotational constants (in MHz): 
     179800.0468598562         14772.6391044567         13651.0486559877
  ECPDATA file not present.   Using default ECPDATA. 
  @GTFLGS-I, Hessian will be transformed to curvilinear coordinates.
  There are  157 basis functions.
 @CHECKOUT-I, Total execution time (CPU/WALL):        0.19/       0.25 seconds.
--executable xjoda finished with status     0 in        0.30 seconds (walltime).
 --invoking executable--
/home/asmola/.local/bin/xvmol
 SERIAL VERSION OF MOLECULE STARTED
********************************************************************************
                    INPUT FROM MOL FILE
********************************************************************************
INTGRL        1    0    1    0    0    0    0    0    0                         
         *** CFOUR Program System (Release V0.1) ***                            
Hypochlorous acid DBOC calculation                                              
    3    1 Z          0.10E-08              0    0                              
   9999.00      3.00                                                            
          8.00000000    1    4    1    1    1    1                              
O #1  -2.104396301262596   0.265627399425801   0.000000000000000                
   13    7                                                                      
   15330.0000000000       5.080000000000000E-004 -1.150000000000000E-004        
  0.000000000000000E+000  0.000000000000000E+000  0.000000000000000E+000        
  0.000000000000000E+000  0.000000000000000E+000                                
   2299.00000000000       3.929000000000000E-003 -8.950000000000000E-004        
  0.000000000000000E+000  0.000000000000000E+000  0.000000000000000E+000        
  0.000000000000000E+000  0.000000000000000E+000                                
   522.400000000000       2.024300000000000E-002 -4.636000000000000E-003        
  0.000000000000000E+000  0.000000000000000E+000  0.000000000000000E+000        
  0.000000000000000E+000  0.000000000000000E+000                                
   147.300000000000       7.918100000000000E-002 -1.872400000000000E-002        
  0.000000000000000E+000  0.000000000000000E+000  0.000000000000000E+000        
  0.000000000000000E+000  0.000000000000000E+000                                
   47.5500000000000       0.230687000000000      -5.846300000000000E-002        
  0.000000000000000E+000  0.000000000000000E+000  0.000000000000000E+000        
  0.000000000000000E+000  0.000000000000000E+000                                
   16.7600000000000       0.433118000000000      -0.136463000000000             
  0.000000000000000E+000  0.000000000000000E+000  0.000000000000000E+000        
  0.000000000000000E+000  0.000000000000000E+000                                
   6.20700000000000       0.350260000000000      -0.175740000000000             
  0.000000000000000E+000  0.000000000000000E+000  0.000000000000000E+000        
  0.000000000000000E+000  0.000000000000000E+000                                
   1.75200000000000       4.272800000000000E-002  0.160934000000000             
   1.00000000000000       0.000000000000000E+000  0.000000000000000E+000        
  0.000000000000000E+000  0.000000000000000E+000                                
  0.688200000000000      -8.154000000000000E-003  0.603418000000000             
  0.000000000000000E+000  0.000000000000000E+000  0.000000000000000E+000        
  0.000000000000000E+000  0.000000000000000E+000                                
  0.238400000000000       2.381000000000000E-003  0.378765000000000             
  0.000000000000000E+000   1.00000000000000       0.000000000000000E+000        
  0.000000000000000E+000  0.000000000000000E+000                                
   7.84500000000000       0.000000000000000E+000  0.000000000000000E+000        
  0.000000000000000E+000  0.000000000000000E+000   1.00000000000000             
  0.000000000000000E+000  0.000000000000000E+000                                
   21.0320000000000       0.000000000000000E+000  0.000000000000000E+000        
  0.000000000000000E+000  0.000000000000000E+000  0.000000000000000E+000        
   1.00000000000000       0.000000000000000E+000                                
  7.376000000000001E-002  0.000000000000000E+000  0.000000000000000E+000        
  0.000000000000000E+000  0.000000000000000E+000  0.000000000000000E+000        
  0.000000000000000E+000   1.00000000000000                                     
    8    6                                                                      
   34.4600000000000       1.592800000000000E-002  0.000000000000000E+000        
  0.000000000000000E+000  0.000000000000000E+000  0.000000000000000E+000        
  0.000000000000000E+000                                                        
   7.74900000000000       9.974000000000000E-002  0.000000000000000E+000        
  0.000000000000000E+000  0.000000000000000E+000  0.000000000000000E+000        
  0.000000000000000E+000                                                        
   2.28000000000000       0.310492000000000       0.000000000000000E+000        
  0.000000000000000E+000  0.000000000000000E+000  0.000000000000000E+000        
  0.000000000000000E+000                                                        
  0.715600000000000       0.491026000000000        1.00000000000000             
  0.000000000000000E+000  0.000000000000000E+000  0.000000000000000E+000        
  0.000000000000000E+000                                                        
  0.214000000000000       0.336337000000000       0.000000000000000E+000        
   1.00000000000000       0.000000000000000E+000  0.000000000000000E+000        
  0.000000000000000E+000                                                        
   15.1590000000000       0.000000000000000E+000  0.000000000000000E+000        
  0.000000000000000E+000   1.00000000000000       0.000000000000000E+000        
  0.000000000000000E+000                                                        
   57.4370000000000       0.000000000000000E+000  0.000000000000000E+000        
  0.000000000000000E+000  0.000000000000000E+000   1.00000000000000             
  0.000000000000000E+000                                                        
  5.974000000000000E-002  0.000000000000000E+000  0.000000000000000E+000        
  0.000000000000000E+000  0.000000000000000E+000  0.000000000000000E+000        
   1.00000000000000                                                             
    4    4                                                                      
   2.31400000000000        1.00000000000000       0.000000000000000E+000        
  0.000000000000000E+000  0.000000000000000E+000                                
  0.645000000000000       0.000000000000000E+000   1.00000000000000             
  0.000000000000000E+000  0.000000000000000E+000                                
   15.8580000000000       0.000000000000000E+000  0.000000000000000E+000        
   1.00000000000000       0.000000000000000E+000                                
  0.214000000000000       0.000000000000000E+000  0.000000000000000E+000        
  0.000000000000000E+000   1.00000000000000                                     
    2    2                                                                      
   1.42800000000000        1.00000000000000       0.000000000000000E+000        
  0.500000000000000       0.000000000000000E+000   1.00000000000000             
          1.00000000    1    3    1    1    1                                   
H #2  -3.439018185996721  -2.965588921863171   0.000000000000000                
    6    4                                                                      
   33.8700000000000       6.068000000000000E-003  0.000000000000000E+000        
  0.000000000000000E+000  0.000000000000000E+000                                
   5.09500000000000       4.530800000000000E-002  0.000000000000000E+000        
  0.000000000000000E+000  0.000000000000000E+000                                
   1.15900000000000       0.202822000000000       0.000000000000000E+000        
  0.000000000000000E+000  0.000000000000000E+000                                
  0.325800000000000       0.503903000000000        1.00000000000000             
  0.000000000000000E+000  0.000000000000000E+000                                
  0.102700000000000       0.383421000000000       0.000000000000000E+000        
   1.00000000000000       0.000000000000000E+000                                
  2.526000000000000E-002  0.000000000000000E+000  0.000000000000000E+000        
  0.000000000000000E+000   1.00000000000000                                     
    3    3                                                                      
   1.40700000000000        1.00000000000000       0.000000000000000E+000        
  0.000000000000000E+000                                                        
  0.388000000000000       0.000000000000000E+000   1.00000000000000             
  0.000000000000000E+000                                                        
  0.102000000000000       0.000000000000000E+000  0.000000000000000E+000        
   1.00000000000000                                                             
    2    2                                                                      
   1.05700000000000        1.00000000000000       0.000000000000000E+000        
  0.247000000000000       0.000000000000000E+000   1.00000000000000             
         17.00000000    1    4    1    1    1    1                              
CL#3   1.061675317353365  -0.036029000673380   0.000000000000000                
   18    8                                                                      
   456100.000000000       4.930000000000000E-005 -1.380000000000000E-005        
  4.200000000000000E-006  0.000000000000000E+000  0.000000000000000E+000        
  0.000000000000000E+000  0.000000000000000E+000  0.000000000000000E+000        
   68330.0000000000       3.830000000000000E-004 -1.073000000000000E-004        
  3.240000000000000E-005  0.000000000000000E+000  0.000000000000000E+000        
  0.000000000000000E+000  0.000000000000000E+000  0.000000000000000E+000        
   15550.0000000000       2.008500000000000E-003 -5.651000000000000E-004        
  1.711000000000000E-004  0.000000000000000E+000  0.000000000000000E+000        
  0.000000000000000E+000  0.000000000000000E+000  0.000000000000000E+000        
   4405.00000000000       8.385600000000000E-003 -2.361400000000000E-003        
  7.142000000000000E-004  0.000000000000000E+000  0.000000000000000E+000        
  0.000000000000000E+000  0.000000000000000E+000  0.000000000000000E+000        
   1439.00000000000       2.947030000000000E-002 -8.458900000000000E-003        
  2.567000000000000E-003  0.000000000000000E+000  0.000000000000000E+000        
  0.000000000000000E+000  0.000000000000000E+000  0.000000000000000E+000        
   520.400000000000       8.783249999999999E-002 -2.596380000000000E-002        
  7.885500000000000E-003  0.000000000000000E+000  0.000000000000000E+000        
  0.000000000000000E+000  0.000000000000000E+000  0.000000000000000E+000        
   203.100000000000       0.211473000000000      -6.863619999999999E-002        
  2.108670000000000E-002  0.000000000000000E+000  0.000000000000000E+000        
  0.000000000000000E+000  0.000000000000000E+000  0.000000000000000E+000        
   83.9600000000000       0.365364000000000      -0.141874000000000             
  4.422640000000000E-002  0.000000000000000E+000  0.000000000000000E+000        
  0.000000000000000E+000  0.000000000000000E+000  0.000000000000000E+000        
   36.2000000000000       0.340884000000000      -0.199319000000000             
  6.516700000000000E-002  0.000000000000000E+000  0.000000000000000E+000        
  0.000000000000000E+000  0.000000000000000E+000  0.000000000000000E+000        
   15.8300000000000       0.102133000000000      -1.956620000000000E-002        
  6.030100000000000E-003  0.000000000000000E+000  0.000000000000000E+000        
  0.000000000000000E+000  0.000000000000000E+000  0.000000000000000E+000        
   6.33400000000000       3.116800000000000E-003  0.499741000000000             
 -0.206495000000000       0.000000000000000E+000  0.000000000000000E+000        
  0.000000000000000E+000  0.000000000000000E+000  0.000000000000000E+000        
   2.69400000000000       1.057500000000000E-003  0.563736000000000             
 -0.405871000000000       0.000000000000000E+000  0.000000000000000E+000        
  0.000000000000000E+000  0.000000000000000E+000  0.000000000000000E+000        
  0.976800000000000      -3.780000000000000E-004  7.903250000000001E-002        
  7.595580000000000E-002   1.00000000000000       0.000000000000000E+000        
  0.000000000000000E+000  0.000000000000000E+000  0.000000000000000E+000        
  0.431300000000000       1.561000000000000E-004 -8.350900000000000E-003        
  0.725661000000000       0.000000000000000E+000  0.000000000000000E+000        
  0.000000000000000E+000  0.000000000000000E+000  0.000000000000000E+000        
  0.162500000000000      -5.140000000000000E-005  2.324600000000000E-003        
  0.394423000000000       0.000000000000000E+000   1.00000000000000             
  0.000000000000000E+000  0.000000000000000E+000  0.000000000000000E+000        
   15.0640000000000       0.000000000000000E+000  0.000000000000000E+000        
  0.000000000000000E+000  0.000000000000000E+000  0.000000000000000E+000        
   1.00000000000000       0.000000000000000E+000  0.000000000000000E+000        
   2.87400000000000       0.000000000000000E+000  0.000000000000000E+000        
  0.000000000000000E+000  0.000000000000000E+000  0.000000000000000E+000        
  0.000000000000000E+000   1.00000000000000       0.000000000000000E+000        
  5.910000000000000E-002  0.000000000000000E+000  0.000000000000000E+000        
  0.000000000000000E+000  0.000000000000000E+000  0.000000000000000E+000        
  0.000000000000000E+000  0.000000000000000E+000   1.00000000000000             
   12    7                                                                      
   663.300000000000       2.404500000000000E-003 -6.521000000000000E-004        
  0.000000000000000E+000  0.000000000000000E+000  0.000000000000000E+000        
  0.000000000000000E+000  0.000000000000000E+000                                
   156.800000000000       1.921480000000000E-002 -5.194500000000000E-003        
  0.000000000000000E+000  0.000000000000000E+000  0.000000000000000E+000        
  0.000000000000000E+000  0.000000000000000E+000                                
   49.9800000000000       8.850970000000000E-002 -2.469380000000000E-002        
  0.000000000000000E+000  0.000000000000000E+000  0.000000000000000E+000        
  0.000000000000000E+000  0.000000000000000E+000                                
   18.4200000000000       0.256020000000000      -7.281670000000000E-002        
  0.000000000000000E+000  0.000000000000000E+000  0.000000000000000E+000        
  0.000000000000000E+000  0.000000000000000E+000                                
   7.24000000000000       0.436927000000000      -0.134030000000000             
  0.000000000000000E+000  0.000000000000000E+000  0.000000000000000E+000        
  0.000000000000000E+000  0.000000000000000E+000                                
   2.92200000000000       0.350334000000000      -9.477420000000000E-002        
  0.000000000000000E+000  0.000000000000000E+000  0.000000000000000E+000        
  0.000000000000000E+000  0.000000000000000E+000                                
   1.02200000000000       5.854950000000000E-002  0.262289000000000             
   1.00000000000000       0.000000000000000E+000  0.000000000000000E+000        
  0.000000000000000E+000  0.000000000000000E+000                                
  0.381800000000000      -4.584200000000000E-003  0.564667000000000             
  0.000000000000000E+000  0.000000000000000E+000  0.000000000000000E+000        
  0.000000000000000E+000  0.000000000000000E+000                                
  0.130100000000000       2.269700000000000E-003  0.341250000000000             
  0.000000000000000E+000   1.00000000000000       0.000000000000000E+000        
  0.000000000000000E+000  0.000000000000000E+000                                
   9.48000000000000       0.000000000000000E+000  0.000000000000000E+000        
  0.000000000000000E+000  0.000000000000000E+000   1.00000000000000             
  0.000000000000000E+000  0.000000000000000E+000                                
   3.66800000000000       0.000000000000000E+000  0.000000000000000E+000        
  0.000000000000000E+000  0.000000000000000E+000  0.000000000000000E+000        
   1.00000000000000       0.000000000000000E+000                                
  4.190000000000000E-002  0.000000000000000E+000  0.000000000000000E+000        
  0.000000000000000E+000  0.000000000000000E+000  0.000000000000000E+000        
  0.000000000000000E+000   1.00000000000000                                     
    5    5                                                                      
   1.04600000000000        1.00000000000000       0.000000000000000E+000        
  0.000000000000000E+000  0.000000000000000E+000  0.000000000000000E+000        
  0.344000000000000       0.000000000000000E+000   1.00000000000000             
  0.000000000000000E+000  0.000000000000000E+000  0.000000000000000E+000        
   17.9570000000000       0.000000000000000E+000  0.000000000000000E+000        
   1.00000000000000       0.000000000000000E+000  0.000000000000000E+000        
   5.76000000000000       0.000000000000000E+000  0.000000000000000E+000        
  0.000000000000000E+000   1.00000000000000       0.000000000000000E+000        
  0.135000000000000       0.000000000000000E+000  0.000000000000000E+000        
  0.000000000000000E+000  0.000000000000000E+000   1.00000000000000             
    3    3                                                                      
  0.706000000000000        1.00000000000000       0.000000000000000E+000        
  0.000000000000000E+000                                                        
   11.7790000000000       0.000000000000000E+000   1.00000000000000             
  0.000000000000000E+000                                                        
  0.312000000000000       0.000000000000000E+000  0.000000000000000E+000        
   1.00000000000000                                                             
FINISH                                                                          
 
********************************************************************************
 ONE- AND TWO-ELECTRON INTEGRALS OVER SYMMETRY-ADAPTED AOS ARE CALCULATED.

  SPHERICAL HARMONICS ARE USED.
  
  INTEGRALS LESS THAN  0.10E-13 ARE NEGLECTED.

  NUCLEAR REPULSION ENERGY :   48.2157635344 A.U.
  @MOLECU-I, ONE ELECTRON INTEGRALS (CPU/WALL):        0.04/       0.05 SECONDS.
  @TWOEL-I,   14047818 INTEGRALS OF SYMMETRY TYPE  I I I I
  @TWOEL-I,   13186143 INTEGRALS OF SYMMETRY TYPE  I J I J
  @TWOEL-I,    6833367 INTEGRALS OF SYMMETRY TYPE  I I J J
  @TWOEL-I, TOTAL NUMBER OF 2-E INTEGRALS   34067328.
  @MOLECU-I, TWO ELECTRON INTEGRALS (CPU/WALL):       49.89/       8.25 SECONDS.
 @CHECKOUT-I, Total execution time (CPU/WALL):       49.94/       8.32 seconds.

Running with 14 threads/proc

--executable xvmol finished with status     0 in        8.44 seconds (walltime).
 --invoking executable--
/home/asmola/.local/bin/xvmol2ja
 @GETMEM-I,  Allocated    3814 MB of main memory.
 @CHECKOUT-I, Total execution time (CPU/WALL):        0.09/       0.03 seconds.
--executable xvmol2ja finished with status     0 in        0.07 seconds (walltime).
 --invoking executable--
/home/asmola/.local/bin/xvscf
  There are  157 functions in the AO basis.

  There are 2 irreducible representations.

       Irrep        # of functions
         1                104
         2                 53


  Parameters for SCF calculation: 
        SCF reference function:  RHF  
  Maximum number of iterations:  150
     Full symmetry point group: C s 
     Computational point group: C s 
        Initial density matrix: MOREAD                 
     SCF convergence tolerance: 10**(-10)
  DIIS convergence acceleration:  ON
          Latest start for DIIS:   8
                     DIIS order:   6

  Memory information:    1209746 words required.
  Fock matrices are constructed from AO integral file.
 @GETMEM-I,  Allocated       9 MB of main memory.
  Initialization and symmetry analysis required      0.002 seconds.

  @INITGES-I, Occupancies from core Hamiltonian:

          Alpha population by irrep:  10    3
           Beta population by irrep:  10    3


 total no. of electrons in initial guess :  0.000000000000000E+000
  --------------------------------------------------------------------
  Iteration         Total Energy            Largest Density Difference
  --------------------------------------------------------------------
       0            48.215763534420518              0.0000000000D+00
   current occupation vector 
    10  3
    10  3
       1          -366.529260599712870              0.1325117132D+02
   current occupation vector 
    10  3
    10  3
       2          -343.906344819703463              0.1321188219D+02
   current occupation vector 
    10  3
    10  3
       3          -422.488911109157357              0.1066678403D+02
   current occupation vector 
    10  3
    10  3
       4          -340.924670730693265              0.1067704656D+02
   current occupation vector 
    10  3
    10  3
       5          -422.236030315428252              0.1061768161D+02
   current occupation vector 
    10  3
    10  3
       6          -340.830272299093281              0.1061799195D+02
   current occupation vector 
    10  3
    10  3
       7          -422.227642114326159              0.1061593782D+02
   current occupation vector 
    10  3
    10  3
       8          -340.827364289158368              0.1061594682D+02
   current occupation vector 
    10  3
    10  3
       9          -445.122032754788165              0.8446162299D+01
   current occupation vector 
    10  3
    10  3
      10          -461.297244744583963              0.1770484584D+01
   current occupation vector 
    10  3
    10  3
      11          -464.179181296360753              0.3260969217D+00
   current occupation vector 
    10  3
    10  3
      12          -464.527812307578984              0.8785189484D-01
   current occupation vector 
    10  3
    10  3
      13          -472.177104950735952              0.9073305345D+00
   current occupation vector 
    10  3
    10  3
      14          -471.526116685205238              0.6831536593D-01
   current occupation vector 
    10  3
    10  3
      15          -508.172982952705979              0.7364014727D+01
   current occupation vector 
    10  3
    10  3
      16          -519.281707614983929              0.7363715003D+01
   current occupation vector 
    11  2
    11  2
      17          -523.969615934296598              0.4658307321D+01
   current occupation vector 
    11  2
    11  2
      18          -533.141549730679458              0.2389515245D+01
   current occupation vector 
    10  3
    10  3
      19          -533.427515016752636              0.2087239500D+01
   current occupation vector 
    10  3
    10  3
      20          -534.579567931804263              0.2036732769D+01
   current occupation vector 
    10  3
    10  3
      21          -534.682159803237596              0.4980199289D+00
   current occupation vector 
    10  3
    10  3
      22          -534.720067781061971              0.1507706550D+00
   current occupation vector 
    10  3
    10  3
      23          -534.727985947088769              0.9550056737D-01
   current occupation vector 
    10  3
    10  3
      24          -534.728605442298772              0.3028298493D-01
   current occupation vector 
    10  3
    10  3
      25          -534.728746031252285              0.1844766706D-01
   current occupation vector 
    10  3
    10  3
      26          -534.728755710691416              0.4433315205D-02
   current occupation vector 
    10  3
    10  3
      27          -534.728756859067403              0.1539186678D-02
   current occupation vector 
    10  3
    10  3
      28          -534.728756919091779              0.3087195326D-03
   current occupation vector 
    10  3
    10  3
      29          -534.728756929043243              0.1940544361D-03
   current occupation vector 
    10  3
    10  3
      30          -534.728756930164764              0.6044118723D-04
   current occupation vector 
    10  3
    10  3
      31          -534.728756930316081              0.1617437946D-04
   current occupation vector 
    10  3
    10  3
      32          -534.728756930367013              0.9326230746D-05
   current occupation vector 
    10  3
    10  3
      33          -534.728756930377926              0.2501590503D-05
   current occupation vector 
    10  3
    10  3
      34          -534.728756930372356              0.1450839986D-05
   current occupation vector 
    10  3
    10  3
      35          -534.728756930375653              0.4201770126D-06
   current occupation vector 
    10  3
    10  3
      36          -534.728756930380996              0.1591870865D-06
   current occupation vector 
    10  3
    10  3
      37          -534.728756930382360              0.7190110599D-07
   current occupation vector 
    10  3
    10  3
      38          -534.728756930380655              0.2909541097D-07
   current occupation vector 
    10  3
    10  3
      39          -534.728756930382929              0.1633023654D-07
   current occupation vector 
    10  3
    10  3
      40          -534.728756930383611              0.9498468900D-08
   current occupation vector 
    10  3
    10  3
      41          -534.728756930387135              0.3023407746D-08
   current occupation vector 
    10  3
    10  3
      42          -534.728756930380428              0.1230977542D-08
   current occupation vector 
    10  3
    10  3
      43          -534.728756930380769              0.3041675800D-09
   current occupation vector 
    10  3
    10  3

  SCF has converged.

 Density matrix saved to file den.dat
 total electron number:   26.0000000000002     
     E(SCF)=      -534.728756930378267              0.7729528129D-10

  Eigenvector printing suppressed.

 @PUTMOS-I, Writing converged MOs to NEWMOS. 
 @PUTMOS-I, Symmetry   1 Full Blocks 26 Partial Blocksize   0
 @PUTMOS-I, Symmetry   2 Full Blocks 13 Partial Blocksize   1
 @PUTFOCK-I, Writing converged Fock matrix to NEWFOCK. 
 @PUTFOCK-I, Symmetry   1 Full Blocks 26 Partial Blocksize   0
 @PUTFOCK-I, Symmetry   2 Full Blocks 13 Partial Blocksize   1


 
  ORBITAL EIGENVALUES (ALPHA)  (1H = 27.2113834 eV)

       MO #        E(hartree)               E(eV)           FULLSYM    COMPSYM
       ----   --------------------   --------------------   -------   ---------
    1     1        -104.8852445112       -2854.0726013975     A'        A'  (1)
    2     2         -20.6720194671        -562.5142473720     A'        A'  (1)
    3     3         -10.6048140059        -288.5716597996     A'        A'  (1)
    4     4          -8.0714112747        -219.6342667762     A'        A'  (1)
    5     5          -8.0693706417        -219.5787383284     A'        A'  (1)
    6   105          -8.0691280073        -219.5721359108     A''       A'' (2)
    7     6          -1.3489769305         -36.7075284547     A'        A'  (1)
    8     7          -1.0260706610         -27.9208021511     A'        A'  (1)
    9   106          -0.6023931128         -16.3919499511     A''       A'' (2)
   10     8          -0.5935810212         -16.1521607474     A'        A'  (1)
   11     9          -0.5634297651         -15.3317033573     A'        A'  (1)
   12   107          -0.4344915257         -11.8231154895     A''       A'' (2)
   13    10          -0.4130708143         -11.2402283002     A'        A'  (1)
  +++++++++++++++++++++++++++++++++++++++++++++++++++++++++++++++++++++++++++++
   14    11          -0.0565208252          -1.5380098452     A'        A'  (1)
   15    12           0.0519272325           1.4130118326     A'        A'  (1)
   16    13           0.0792943644           2.1577093512     A'        A'  (1)
   17   108           0.1178160747           3.2059383793     A''       A'' (2)
   18    14           0.1180278901           3.2117021688     A'        A'  (1)
   19    15           0.1467217547           3.9925019200     A'        A'  (1)
   20    16           0.1634102354           4.4466185662     A'        A'  (1)
   21    17           0.1763473077           4.7986542009     A'        A'  (1)
   22   109           0.1904790425           5.1831982548     A''       A'' (2)
   23    18           0.2241000706           6.0980729421     A'        A'  (1)
   24   110           0.2435962118           6.6285899144     A''       A'' (2)
   25    19           0.2740485545           7.4572402865     A'        A'  (1)
   26    20           0.3036832657           8.2636417760     A'        A'  (1)
   27    21           0.3402670403           9.2591368917     A'        A'  (1)
   28   111           0.3682839117          10.0215147226     A''       A'' (2)
   29    22           0.3849771418          10.4757606053     A'        A'  (1)
   30   112           0.4257335250          11.5847981758     A''       A'' (2)
   31    23           0.4568809648          12.4323631022     A'        A'  (1)
   32    24           0.5090285005          13.8513696885     A'        A'  (1)
   33    25           0.5886411140          16.0177390383     A'        A'  (1)
   34   113           0.6187364019          16.8366734557     A''       A'' (2)
   35    26           0.6360535940          17.3078982102     A'        A'  (1)
   36    27           0.6657840012          18.1169037188     A'        A'  (1)
   37   114           0.7326667712          19.9368764147     A''       A'' (2)
   38    28           0.7481403726          20.3579345165     A'        A'  (1)
   39    29           0.7658503042          20.8398462539     A'        A'  (1)
   40   115           0.7784679129          21.1831888427     A''       A'' (2)
   41    30           0.7902372277          21.5034481787     A'        A'  (1)
   42   116           0.8140518802          22.1514778205     A''       A'' (2)
   43    31           0.8211591423          22.3448762546     A'        A'  (1)
   44   117           0.8822297768          24.0066927028     A''       A'' (2)
   45    32           0.9051825214          24.6312686371     A'        A'  (1)
   46   118           0.9367127080          25.4892486323     A''       A'' (2)
   47    33           0.9593348114          26.1048273608     A'        A'  (1)
   48   119           0.9703752777          26.4052537225     A''       A'' (2)
   49    34           0.9875653309          26.8730188512     A'        A'  (1)
   50    35           1.0062586928          27.3816910899     A'        A'  (1)
   51    36           1.0265709613          27.9344160149     A'        A'  (1)
   52    37           1.0369754674          28.2175370193     A'        A'  (1)
   53   120           1.0765217286          29.2936454960     A''       A'' (2)
   54    38           1.0945699363          29.7847621939     A'        A'  (1)
   55   121           1.1591387423          31.5417687303     A''       A'' (2)
   56    39           1.1661422799          31.7323446783     A'        A'  (1)
   57    40           1.2034523594          32.7476035541     A'        A'  (1)
   58   122           1.2623920894          34.3514351447     A''       A'' (2)
   59    41           1.2923806237          35.1674646509     A'        A'  (1)
   60   123           1.3479627551          36.6799313390     A''       A'' (2)
   61    42           1.4726690512          40.0733621731     A'        A'  (1)
   62   124           1.5233507886          41.4524823608     A''       A'' (2)
   63    43           1.5252148856          41.5032070191     A'        A'  (1)
   64    44           1.6237407800          44.1842329061     A'        A'  (1)
   65    45           1.7217017207          46.8498856216     A'        A'  (1)
   66    46           1.8117111748          49.2991673886     A'        A'  (1)
   67   125           2.1390731410          58.2071393597     A''       A'' (2)
   68    47           2.1753752640          59.1949703486     A'        A'  (1)
   69   126           2.2223310683          60.4727027407     A''       A'' (2)
   70    48           2.2522565011          61.2870151661     A'        A'  (1)
   71   127           2.3042127481          62.7008165241     A''       A'' (2)
   72    49           2.3095214855          62.8452746129     A'        A'  (1)
   73    50           2.3155704837          63.0098762227     A'        A'  (1)
   74   128           2.3542975014          64.0636919480     A''       A'' (2)
   75    51           2.3656605846          64.3728971631     A'        A'  (1)
   76    52           2.3824134510          64.8287658321     A'        A'  (1)
   77   129           2.4369936425          66.3139683493     A''       A'' (2)
   78    53           2.4766957235          67.3943168976     A'        A'  (1)
   79   130           2.4788447660          67.4527953180     A''       A'' (2)
   80    54           2.4951674089          67.8969570117     A'        A'  (1)
   81   131           2.5111425288          68.3316621235     A''       A'' (2)
   82    55           2.5875155695          70.4098782142     A'        A'  (1)
   83    56           2.8983689373          78.8686283886     A'        A'  (1)
   84   132           2.9026286750          78.9845417439     A''       A'' (2)
   85    57           2.9657258204          80.7015023579     A'        A'  (1)
   86    58           3.0029206606          81.7136254156     A'        A'  (1)
   87   133           3.0587858220          83.2337937421     A''       A'' (2)
   88    59           3.0637196152          83.3680490802     A'        A'  (1)
   89   134           3.0950116714          84.2195492180     A''       A'' (2)
   90    60           3.1311062545          85.2017327564     A'        A'  (1)
   91    61           3.2045362451          87.1998643858     A'        A'  (1)
   92   135           3.3684094543          91.6590811093     A''       A'' (2)
   93    62           3.3716899695          91.7483484663     A'        A'  (1)
   94    63           3.3912437424          92.2804336779     A'        A'  (1)
   95   136           3.7953899711         103.2778116569     A''       A'' (2)
   96    64           3.8001729791         103.4079639200     A'        A'  (1)
   97    65           3.8216380974         103.9920594838     A'        A'  (1)
   98   137           3.8829654826         105.6608624769     A''       A'' (2)
   99    66           3.9898153194         108.5683943507     A'        A'  (1)
  100   138           4.0420971627         109.9910556330     A''       A'' (2)
  101    67           4.1124128606         111.9044430478     A'        A'  (1)
  102   139           4.1920010114         114.0701467337     A''       A'' (2)
  103    68           4.2271191565         115.0257600456     A'        A'  (1)
  104    69           4.3860765278         119.3512100202     A'        A'  (1)
  105    70           4.6107361994         125.4645104793     A'        A'  (1)
  106    71           5.1335892582         139.6920655238     A'        A'  (1)
  107    72           5.8801866539         160.0080135039     A'        A'  (1)
  108   140           6.5577276141         178.4448403393     A''       A'' (2)
  109    73           6.5996859991         179.5865860412     A'        A'  (1)
  110   141           6.6251908934         180.2806094977     A''       A'' (2)
  111    74           6.6731721215         181.5862450914     A'        A'  (1)
  112   142           6.7675799554         184.1552128565     A''       A'' (2)
  113    75           6.8412006823         186.1585346831     A'        A'  (1)
  114    76           6.9541452204         189.2319118122     A'        A'  (1)
  115   143           7.0507256091         191.8599977983     A''       A'' (2)
  116    77           7.1220373110         193.8004878590     A'        A'  (1)
  117   144           7.1643221156         194.9511158886     A''       A'' (2)
  118    78           7.2782239428         198.0505421783     A'        A'  (1)
  119    79           7.6270504347         207.5425935905     A'        A'  (1)
  120   145          10.3525001375         281.7058503908     A''       A'' (2)
  121    80          10.3580573463         281.8570697285     A'        A'  (1)
  122   146          10.3910632452         282.7552058986     A''       A'' (2)
  123    81          10.4249303876         283.6767776946     A'        A'  (1)
  124    82          10.5926496551         288.2406509862     A'        A'  (1)
  125   147          12.6815574443         345.0827217260     A''       A'' (2)
  126    83          12.7204184419         346.1401832321     A'        A'  (1)
  127    84          13.1818179825         358.6955030303     A'        A'  (1)
  128    85          18.2379584992         496.2800811543     A'        A'  (1)
  129   148          26.0443746511         708.7034640448     A''       A'' (2)
  130    86          26.1637230853         711.9511000442     A'        A'  (1)
  131    87          26.5710796410         723.0358354623     A'        A'  (1)
  132    88          28.7147946243         781.3692857738     A'        A'  (1)
  133   149          36.9000948088        1004.1026273373     A''       A'' (2)
  134    89          36.9012952369        1004.1352926474     A'        A'  (1)
  135   150          36.9020670743        1004.1562954110     A''       A'' (2)
  136    90          36.9026726689        1004.1727744795     A'        A'  (1)
  137   151          36.9092721915        1004.3523566170     A''       A'' (2)
  138    91          36.9094054673        1004.3559832365     A'        A'  (1)
  139    92          36.9144198581        1004.4924317476     A'        A'  (1)
  140   152          43.8563141623        1193.3909791820     A''       A'' (2)
  141    93          43.8680131116        1193.7093237758     A'        A'  (1)
  142    94          43.8932493755        1194.3960374277     A'        A'  (1)
  143   153          43.8938317917        1194.4118857784     A''       A'' (2)
  144    95          44.0427539769        1198.4642644584     A'        A'  (1)
  145   154          46.4867936002        1264.9699636921     A''       A'' (2)
  146    96          46.4899084878        1265.0547240927     A'        A'  (1)
  147   155          46.5116669862        1265.6468029341     A''       A'' (2)
  148    97          46.5298644819        1266.1419819679     A'        A'  (1)
  149    98          46.6152465030        1268.4653448796     A'        A'  (1)
  150   156          55.0202904638        1497.1782185899     A''       A'' (2)
  151    99          55.0644323126        1498.3793793621     A'        A'  (1)
  152   100          55.6053064963        1513.0973141448     A'        A'  (1)
  153   101         103.7687472647        2823.6911667585     A'        A'  (1)
  154   157         138.2063429067        3760.7857851466     A''       A'' (2)
  155   102         138.2934803970        3763.1569168044     A'        A'  (1)
  156   103         138.5798633817        3770.9497939983     A'        A'  (1)
  157   104         149.3981136375        4065.3293494266     A'        A'  (1)


  VSCF finished.

 @CHECKOUT-I, Total execution time (CPU/WALL):       74.23/      14.43 seconds.
--executable xvscf finished with status     0 in       14.49 seconds (walltime).
 --invoking executable--
/home/asmola/.local/bin/xvtran
 @GETMEM-I,  Allocated    3814 MB of main memory.
  Full RHF integral transformation
  Transformation of IIII integrals :
  1 pass through the AO integral file was required.
    14047818 AO integrals were read.
    15933126 MO integrals were written to HF2.
  Transformation of IIJJ integrals :
  1 pass through the AO integral file was required.
     6833367 AO integrals were read.
     7813260 MO integrals were written to HF2.
  Transformation of IJIJ integrals :
  1 pass through the AO integral file was required.
    13186143 AO integrals were read.
    15193828 MO integrals were written to HF2.
  Summary of active molecular orbitals: 
------------------------------------------------------------------------
 
  Index      Eigenvalue    Symmetry    Index      Eigenvalue    Symmetry
------------------------------------------------------------------------
     1      -104.8852445        1        80         7.1220373        1
     2       -20.6720195        1        81         7.2782239        1
     3       -10.6048140        1        82         7.6270504        1
     4        -8.0714113        1        83        10.3580573        1
     5        -8.0693706        1        84        10.4249304        1
     6        -1.3489769        1        85        10.5926497        1
     7        -1.0260707        1        86        12.7204184        1
     8        -0.5935810        1        87        13.1818180        1
     9        -0.5634298        1        88        18.2379585        1
    10        -0.4130708        1        89        26.1637231        1
    11        -8.0691280        2        90        26.5710796        1
    12        -0.6023931        2        91        28.7147946        1
    13        -0.4344915        2        92        36.9012952        1
    14        -0.0565208        1        93        36.9026727        1
    15         0.0519272        1        94        36.9094055        1
    16         0.0792944        1        95        36.9144199        1
    17         0.1180279        1        96        43.8680131        1
    18         0.1467218        1        97        43.8932494        1
    19         0.1634102        1        98        44.0427540        1
    20         0.1763473        1        99        46.4899085        1
    21         0.2241001        1       100        46.5298645        1
    22         0.2740486        1       101        46.6152465        1
    23         0.3036833        1       102        55.0644323        1
    24         0.3402670        1       103        55.6053065        1
    25         0.3849771        1       104       103.7687473        1
    26         0.4568810        1       105       138.2934804        1
    27         0.5090285        1       106       138.5798634        1
    28         0.5886411        1       107       149.3981136        1
    29         0.6360536        1       108         0.1178161        2
    30         0.6657840        1       109         0.1904790        2
    31         0.7481404        1       110         0.2435962        2
    32         0.7658503        1       111         0.3682839        2
    33         0.7902372        1       112         0.4257335        2
    34         0.8211591        1       113         0.6187364        2
    35         0.9051825        1       114         0.7326668        2
    36         0.9593348        1       115         0.7784679        2
    37         0.9875653        1       116         0.8140519        2
    38         1.0062587        1       117         0.8822298        2
    39         1.0265710        1       118         0.9367127        2
    40         1.0369755        1       119         0.9703753        2
    41         1.0945699        1       120         1.0765217        2
    42         1.1661423        1       121         1.1591387        2
    43         1.2034524        1       122         1.2623921        2
    44         1.2923806        1       123         1.3479628        2
    45         1.4726691        1       124         1.5233508        2
    46         1.5252149        1       125         2.1390731        2
    47         1.6237408        1       126         2.2223311        2
    48         1.7217017        1       127         2.3042127        2
    49         1.8117112        1       128         2.3542975        2
    50         2.1753753        1       129         2.4369936        2
    51         2.2522565        1       130         2.4788448        2
    52         2.3095215        1       131         2.5111425        2
    53         2.3155705        1       132         2.9026287        2
    54         2.3656606        1       133         3.0587858        2
    55         2.3824135        1       134         3.0950117        2
    56         2.4766957        1       135         3.3684095        2
    57         2.4951674        1       136         3.7953900        2
    58         2.5875156        1       137         3.8829655        2
    59         2.8983689        1       138         4.0420972        2
    60         2.9657258        1       139         4.1920010        2
    61         3.0029207        1       140         6.5577276        2
    62         3.0637196        1       141         6.6251909        2
    63         3.1311063        1       142         6.7675800        2
    64         3.2045362        1       143         7.0507256        2
    65         3.3716900        1       144         7.1643221        2
    66         3.3912437        1       145        10.3525001        2
    67         3.8001730        1       146        10.3910632        2
    68         3.8216381        1       147        12.6815574        2
    69         3.9898153        1       148        26.0443747        2
    70         4.1124129        1       149        36.9000948        2
    71         4.2271192        1       150        36.9020671        2
    72         4.3860765        1       151        36.9092722        2
    73         4.6107362        1       152        43.8563142        2
    74         5.1335893        1       153        43.8938318        2
    75         5.8801867        1       154        46.4867936        2
    76         6.5996860        1       155        46.5116670        2
    77         6.6731721        1       156        55.0202905        2
    78         6.8412007        1       157       138.2063429        2
    79         6.9541452        1
------------------------------------------------------------------------
  -104.885244511219       -20.6720194671180       -10.6048140058768     
  -8.07141127474510       -8.06937064171419       -1.34897693054068     
  -1.02607066096796      -0.593581021220748      -0.563429765108630     
 -0.413070814335743       -8.06912800731941      -0.602393112842475     
 -0.434491525687562      -5.652082522306101E-002  5.192723250638614E-002
  7.929436440279462E-002  0.118027890079049       0.146721754689489     
  0.163410235370502       0.176347307680592       0.224100070636302     
  0.274048554493110       0.303683265730872       0.340267040288098     
  0.384977141784256       0.456880964832741       0.509028500493316     
  0.588641114008242       0.636053594035202       0.665784001220010     
  0.748140372623388       0.765850304174388       0.790237227657272     
  0.821159142340466       0.905182521411983       0.959334811358231     
  0.987565330882313        1.00625869281995        1.02657096128926     
   1.03697546738068        1.09456993626763        1.16614227993541     
   1.20345235935596        1.29238062372345        1.47266905118628     
   1.52521488558744        1.62374077997422        1.72170172067033     
   1.81171117483812        2.17537526403889        2.25225650108108     
   2.30952148551452        2.31557048373855        2.36566058464725     
   2.38241345098773        2.47669572351114        2.49516740893339     
   2.58751556946636        2.89836893733871        2.96572582039023     
   3.00292066060688        3.06371961523322        3.13110625446689     
   3.20453624514329        3.37168996951272        3.39124374242337     
   3.80017297907785        3.82163809737839        3.98981531937343     
   4.11241286056068        4.22711915652366        4.38607652781982     
   4.61073619944245        5.13358925823022        5.88018665393774     
   6.59968599910133        6.67317212146407        6.84120068232627     
   6.95414522042315        7.12203731101075        7.27822394278865     
   7.62705043472633        10.3580573462674        10.4249303875729     
   10.5926496550778        12.7204184419433        13.1818179824806     
   18.2379584991723        26.1637230852511        26.5710796409689     
   28.7147946242905        36.9012952368833        36.9026726689498     
   36.9094054672912        36.9144198581095        43.8680131115943     
   43.8932493754681        44.0427539769391        46.4899084878085     
   46.5298644819327        46.6152465030352        55.0644323126219     
   55.6053064962799        103.768747264738        138.293480397045     
   138.579863381674        149.398113637493       0.117816074697051     
  0.190479042489168       0.243596211810863       0.368283911745560     
  0.425733525030448       0.618736401902886       0.732666771168984     
  0.778467912907520       0.814051880231522       0.882229776779020     
  0.936712707973297       0.970375277668440        1.07652172862293     
   1.15913874229224        1.26239208935933        1.34796275514041     
   1.52335078858373        2.13907314097555        2.22233106828060     
   2.30421274811520        2.35429750138898        2.43699364249553     
   2.47884476604783        2.51114252880934        2.90262867502221     
   3.05878582204130        3.09501167140360        3.36840945430594     
   3.79538997112967        3.88296548263395        4.04209716265366     
   4.19200101137613        6.55772761407427        6.62519089336893     
   6.76757995539851        7.05072560913409        7.16432211559558     
   10.3525001375267        10.3910632451918        12.6815574443013     
   26.0443746511190        36.9000948087526        36.9020670742896     
   36.9092721914665        43.8563141623306        43.8938317916759     
   46.4867936002161        46.5116669861819        55.0202904638013     
   138.206342906717     
 @CHECKOUT-I, Total execution time (CPU/WALL):       34.17/      19.40 seconds.
--executable xvtran finished with status     0 in       19.46 seconds (walltime).
 --invoking executable--
/home/asmola/.local/bin/xintprc
 @GETMEM-I,  Allocated    3814 MB of main memory.
  Processing integrals for CCSD calculation.
  @GMOIAA-I, Processing MO integrals for spin case AA.
  @GMOIAA-I, Generation of integral list completed.
                      TYPE                NUMBER
                      ----               --------
                      PPPP              27524020
                      PPPH               9932000
                      PPHH                900748
                      PHPH                491140
                      PHHH                 89950
                      HHHH                  2356

                     TOTAL              38940214

  @FORMT2-I, Second-order MP correlation energies:
            ------------------------------------------------
            E(SCF)                  =   -534.728756930378 a.u.
            E2(AA)                  =     -0.112176595976 a.u.
            E2(AB)                  =     -0.668965239228 a.u.
            E2(TOT)                 =     -0.893318431180 a.u.
            Total MP2 energy        =   -535.622075361559 a.u.
            ------------------------------------------------
   Largest T2 amplitudes for spin case AB:
       _       _                 _       _                 _       _
   i   j   a   b             i   j   a   b             i   j   a   b
-----------------------------------------------------------------------------
[ 10  10  14  14]-0.10672 [ 10   9  14  14]-0.06737 [  9  10  14  14]-0.06737
[  9   9  14  14]-0.06578 [  8   8  19  19]-0.04142 [  8   9  19  14]-0.03132
[  9   8  14  19]-0.03132 [ 10  10  15  14] 0.02836 [ 10  10  14  15] 0.02836
[  8   8  19  16] 0.02737 [  8   8  16  19] 0.02737 [ 10  10  16  14]-0.02273
[ 10  10  14  16]-0.02273 [  9   8  14  16] 0.02226 [  8   9  16  14] 0.02226
-----------------------------------------------------------------------------
   Norm of T2AB vector (  1799624 symmetry allowed elements):  0.3951146671.
-----------------------------------------------------------------------------
 @CHECKOUT-I, Total execution time (CPU/WALL):        6.29/      11.27 seconds.
--executable xintprc finished with status     0 in       11.53 seconds (walltime).
  calling xvcc 
 --invoking executable--
/home/asmola/.local/bin/xvcc
 @GETMEM-I,  Allocated    3814 MB of main memory.
   CCSD energy will be calculated.
   The total correlation energy is -0.893318431180 a.u.
   The total correlation energy is -0.874700928599 a.u.
  Convergence information after     1 iterations: 
  Largest element of residual vector :  0.32408213E-01.
  Largest element of DIIS residual   :  0.32408213E-01.
   The total correlation energy is -0.904291944507 a.u.
  Convergence information after     2 iterations: 
  Largest element of residual vector : -0.34906754E-01.
  Largest element of DIIS residual   : -0.29095370E-01.
   The total correlation energy is -0.901814936148 a.u.
  Convergence information after     3 iterations: 
  Largest element of residual vector : -0.14364704E-01.
  Largest element of DIIS residual   :  0.14214756E-01.
   The total correlation energy is -0.906341632466 a.u.
  Convergence information after     4 iterations: 
  Largest element of residual vector : -0.67668087E-02.
  Largest element of DIIS residual   : -0.26223353E-02.
   The total correlation energy is -0.907648555370 a.u.
  Convergence information after     5 iterations: 
  Largest element of residual vector :  0.35119678E-02.
  Largest element of DIIS residual   :  0.13551577E-02.
   The total correlation energy is -0.907747198164 a.u.
  Convergence information after     6 iterations: 
  Largest element of residual vector :  0.87739688E-03.
  Largest element of DIIS residual   :  0.72509296E-03.
   The total correlation energy is -0.907747330170 a.u.
  Convergence information after     7 iterations: 
  Largest element of residual vector :  0.59565146E-03.
  Largest element of DIIS residual   :  0.40494742E-03.
   The total correlation energy is -0.907770076887 a.u.
  Convergence information after     8 iterations: 
  Largest element of residual vector :  0.28106515E-03.
  Largest element of DIIS residual   :  0.14363709E-03.
   The total correlation energy is -0.907755672853 a.u.
  Convergence information after     9 iterations: 
  Largest element of residual vector :  0.99376042E-04.
  Largest element of DIIS residual   :  0.59429749E-04.
   The total correlation energy is -0.907767252615 a.u.
  Convergence information after    10 iterations: 
  Largest element of residual vector : -0.48881119E-04.
  Largest element of DIIS residual   : -0.42069218E-04.
   The total correlation energy is -0.907768570488 a.u.
  Convergence information after    11 iterations: 
  Largest element of residual vector :  0.43822200E-04.
  Largest element of DIIS residual   :  0.24387500E-04.
   The total correlation energy is -0.907769173912 a.u.
  Convergence information after    12 iterations: 
  Largest element of residual vector : -0.12147337E-04.
  Largest element of DIIS residual   : -0.76782534E-05.
   The total correlation energy is -0.907770454256 a.u.
  Convergence information after    13 iterations: 
  Largest element of residual vector :  0.10112850E-04.
  Largest element of DIIS residual   : -0.71547204E-05.
   The total correlation energy is -0.907770883868 a.u.
  Convergence information after    14 iterations: 
  Largest element of residual vector :  0.30798995E-05.
  Largest element of DIIS residual   : -0.20960121E-05.
   The total correlation energy is -0.907770690520 a.u.
  Convergence information after    15 iterations: 
  Largest element of residual vector :  0.19536423E-05.
  Largest element of DIIS residual   :  0.13045764E-05.
   The total correlation energy is -0.907770921688 a.u.
  Convergence information after    16 iterations: 
  Largest element of residual vector : -0.96459043E-06.
  Largest element of DIIS residual   : -0.70294009E-06.
   The total correlation energy is -0.907770784024 a.u.
  Convergence information after    17 iterations: 
  Largest element of residual vector :  0.53937843E-06.
  Largest element of DIIS residual   :  0.42079201E-06.
   The total correlation energy is -0.907770765148 a.u.
  Convergence information after    18 iterations: 
  Largest element of residual vector : -0.41129083E-06.
  Largest element of DIIS residual   : -0.34278492E-06.
   The total correlation energy is -0.907770757393 a.u.
  Convergence information after    19 iterations: 
  Largest element of residual vector :  0.17181906E-06.
  Largest element of DIIS residual   :  0.11005988E-06.
   The total correlation energy is -0.907770740394 a.u.
  Convergence information after    20 iterations: 
  Largest element of residual vector : -0.12753825E-06.
  Largest element of DIIS residual   :  0.36010186E-07.
   The total correlation energy is -0.907770735183 a.u.
  Convergence information after    21 iterations: 
  Largest element of residual vector : -0.44554672E-07.
  Largest element of DIIS residual   : -0.17714092E-07.
   The total correlation energy is -0.907770735108 a.u.
  Convergence information after    22 iterations: 
  Largest element of residual vector : -0.16759629E-07.
  Largest element of DIIS residual   : -0.64253484E-08.
   The total correlation energy is -0.907770733550 a.u.
  Convergence information after    23 iterations: 
  Largest element of residual vector : -0.60648867E-08.
  Largest element of DIIS residual   : -0.54803255E-08.
   The total correlation energy is -0.907770734108 a.u.
  Convergence information after    24 iterations: 
  Largest element of residual vector : -0.27796891E-08.
  Largest element of DIIS residual   :  0.24193844E-08.
   The total correlation energy is -0.907770734127 a.u.
  Convergence information after    25 iterations: 
  Largest element of residual vector :  0.32858739E-08.
  Largest element of DIIS residual   :  0.15929213E-08.
   The total correlation energy is -0.907770734265 a.u.
  Convergence information after    26 iterations: 
  Largest element of residual vector :  0.12937260E-08.
  Largest element of DIIS residual   :  0.98861959E-09.
   The total correlation energy is -0.907770734272 a.u.
  Convergence information after    27 iterations: 
  Largest element of residual vector :  0.94420057E-09.
  Largest element of DIIS residual   :  0.34026619E-09.
[...]
 term  0.448005061132925     
 final tnorm  0.744181092796305     
  norm contr. I: |<0|L dT/dx|0>|^2   0.000000000000000E+000
  norm contr. II: <0|[nabla(1+L)e-T][nabla e^T]|0>  0.448005061132925     
  total norm contribution  0.448005061132925     
 oo  2.212474357570170E-003
 vv  -1.50078120217382     
 vo -3.407310584977079E-002
  Correlated perturbed 1-el contribution to DBOC  -1.53264183366602       cm**-1
  SUM_I |dc_I/dx|^2 contribution to DBOC  0.771456790082123       cm**-1
 
 
  The total diagonal Born-Oppenheimer correction (DBOC) is:      0.0087747897 a.u.
  The total diagonal Born-Oppenheimer correction (DBOC) is:       1925.843727 cm-1
 
 Total CC energy including DBOC  -535.627752875001     
 First-order density matrix is being calculated  (Symmetry block 2, perturbation   3)
 Calculation of the contributions of <pq||rs> to dI(i,j)/dx required   4.0 seconds.
 Calculation of the contributions of <pq||rs> to dI(a,b)/dx required  11.0 seconds.
 Calculation of the contributions of <pq||rs> to dI(i,a)/dx required   6.7 seconds.
 First-order Z-vector equations are solved for 1 perturbation.
 Convergence reached after  24 iterations.
        U*G(pq,rs) contribution is being calculated
             (Symmetry block 2, perturbation   3)

 CCSD contribution to force constants 

        0.0000000000        0.0000000000        0.0000000000
        0.0000000000        0.0000000000        0.0000000000
        0.0000000000        0.0000000000        0.0000000000
        0.0000000000        0.0000000000        0.0000000000
        0.0000000000        0.0000000000        0.0000000000
        0.0000000000        0.0000000000        0.0000000000
        0.0000000000        0.0000000000        0.0000000000
        0.0000000000        0.0000000000        0.0000000000
        0.0000000000        0.0000000000        0.0000000000
        0.0000000000        0.0000000000        0.0000000000
        0.0000000000        0.0000000000        0.0000000000
        0.0000000000        0.0000000000        0.0000000000
        0.0000000000        0.0000000000        0.0000000000
        0.0000000000        0.0000000000        0.0000000000
        0.0000000000        0.0000000000        0.0000000000
        0.0000000000        0.0000000000        0.0000000000
        0.0000000000        0.0000000000        0.0000000000
        0.0000000000        0.0000000000        0.0000000000
        0.0000000000        0.0000000000        0.0000000000
        0.0000000000        0.0000000000        0.0000000000
        0.0000000000        0.0000000000        0.0000000000
        0.0000000000        0.0000000000        0.0000000000
        0.0000000000        0.0000000000        0.0000000000
        0.0000000000        0.0000000000        0.0000000000
        0.0000000000        0.0000000000        0.0000000000
        0.0000000000        0.0000000000        0.0000000000
        0.0775550860        0.0077417143       -0.0852968003

 CCSD contribution to dipole derivatives 

        0.0000000000        0.0000000000        0.0000000000
        0.0000000000        0.0000000000        0.0000000000
        0.0000000000        0.0000000000        0.0000000000
        0.0000000000        0.0000000000        0.0000000000
        0.0000000000        0.0000000000        0.0000000000
        0.0000000000        0.0000000000        0.0000000000
        0.0000000000        0.0000000000        0.0000000000
        0.0000000000        0.0000000000        0.0000000000
        0.0000000000        0.0000000000        0.0245749289
 @CHECKOUT-I, Total execution time (CPU/WALL):     1105.39/     289.21 seconds.
--executable xsdcc finished with status     0 in      289.39 seconds (walltime).
 --invoking executable--
/home/asmola/.local/bin/xanti
 @GETMEM-I,  Allocated    3814 MB of main memory.
 CCSD MO derivative gammas will be sorted to Mulliken order.
 @CHECKOUT-I, Total execution time (CPU/WALL):        6.31/       4.95 seconds.
--executable xanti finished with status     0 in        5.08 seconds (walltime).
 --invoking executable--
/home/asmola/.local/bin/xbcktrn
 @GETMEM-I,  Allocated    3814 MB of main memory.
 CCSD MO derivative gammas will be transformed to the AO basis.
 @CHECKOUT-I, Total execution time (CPU/WALL):       11.03/       2.66 seconds.
--executable xbcktrn finished with status     0 in        2.72 seconds (walltime).
 --invoking executable--
/home/asmola/.local/bin/xvdint
 @GETMEM-I,  Allocated    3814 MB of main memory.
 One- and two-electron integral derivatives are calculated
 for RHF-CC/MBPT hessians and dipole derivatives.
 Spherical gaussians are used.
  magnet F F
 Evaluation of 2el integral derivatives

                      Two-electron integral gradient
                      ------------------------------

                         O #1 x     0.0000000000
                         O #1 y     0.0000000000
                         H #2 x     0.0000000000
                         H #2 y     0.0000000000
                         CL#3 x     0.0000000000
                         CL#3 y     0.0000000000


 O #1       0.0000000000            0.0000000000           -0.0868918561
 H #2       0.0000000000            0.0000000000           -0.0005444464
 CL#3       0.0000000000            0.0000000000            0.0874363025


 Evaluation of 2e integral derivatives required  109.87 seconds.
  contribution to Hessian
        0.0000000000        0.0000000000        0.0000000000
        0.0000000000        0.0000000000        0.0000000000
       -0.0868918561       -0.0005444464        0.0874363025
 @CHECKOUT-I, Total execution time (CPU/WALL):      110.04/      19.83 seconds.
--executable xvdint finished with status     0 in       19.98 seconds (walltime).
 --invoking executable--
/home/asmola/.local/bin/xanti
 @GETMEM-I,  Allocated    3814 MB of main memory.
 CCSD MO gammas will be sorted to Mulliken order.
 @CHECKOUT-I, Total execution time (CPU/WALL):        8.49/      14.44 seconds.
--executable xanti finished with status     0 in       14.55 seconds (walltime).
 --invoking executable--
/home/asmola/.local/bin/xbcktrn
 @GETMEM-I,  Allocated    3814 MB of main memory.
 CCSD MO gammas will be transformed to the AO basis.
 @CHECKOUT-I, Total execution time (CPU/WALL):       17.56/       2.99 seconds.
--executable xbcktrn finished with status     0 in        3.06 seconds (walltime).
 --invoking executable--
/home/asmola/.local/bin/xvdint
 @GETMEM-I,  Allocated    3814 MB of main memory.
 One- and two-electron integral derivatives are calculated
 for RHF-CC/MBPT hessians and dipole derivatives.
 Spherical gaussians are used.
  magnet F F

                     Kinetic energy integral gradient
                     --------------------------------

                         O #1 x     0.3335577960
                         O #1 y    -0.0857802660
                         H #2 x     0.0288823484
                         H #2 y     0.0644760206
                         CL#3 x    -0.3624401443
                         CL#3 y     0.0213042453


 O #1       0.3335577960           -0.0857802660            0.0000000000
 H #2       0.0288823484            0.0644760206            0.0000000000
 CL#3      -0.3624401443            0.0213042453            0.0000000000



                   Nuclear attraction integral gradient
                   ------------------------------------

                         O #1 x   -25.8703647139
                         O #1 y     4.3915612403
                         H #2 x    -1.6828227477
                         H #2 y    -2.6338068889
                         CL#3 x    27.5531874616
                         CL#3 y    -1.7577543514


 O #1     -25.8703647139            4.3915612403            0.0000000000
 H #2      -1.6828227477           -2.6338068889            0.0000000000
 CL#3      27.5531874616           -1.7577543514            0.0000000000



                      Reorthonormalization gradient
                      -----------------------------

                         O #1 x     0.0000000000
                         O #1 y     0.0000000000
                         H #2 x     0.0000000000
                         H #2 y     0.0000000000
                         CL#3 x     0.0000000000
                         CL#3 y     0.0000000000


 O #1       0.0000000000            0.0000000000            0.0000000000
 H #2       0.0000000000            0.0000000000            0.0000000000
 CL#3       0.0000000000            0.0000000000            0.0000000000



                     Kinetic energy integral Hessian
                     -------------------------------


           Symmetry 1

           O #1 x      O #1 y      H #2 x      H #2 y      CL#3 x      CL#3 y

 O #1 x    0.390554
 O #1 y   -0.003486   -0.173311
 H #2 x    0.004991   -0.044040   -0.009905
 H #2 y   -0.044040   -0.060766    0.042372    0.061938
 CL#3 x   -0.395545    0.047526    0.004914    0.001668    0.390630
 CL#3 y    0.047526    0.234077    0.001668   -0.001172   -0.049193   -0.232905


           Symmetry 2

           O #1 z      H #2 z      CL#3 z

 O #1 z   -0.250223
 H #2 z    0.029276   -0.028359
 CL#3 z    0.220947   -0.000917   -0.220030




           O #1 x      O #1 y      O #1 z      H #2 x      H #2 y      H #2 z

 O #1 x    0.390554
 O #1 y   -0.003486   -0.173311
 O #1 z    0.000000    0.000000   -0.250223

 H #2 x    0.004991   -0.044040    0.000000   -0.009905
 H #2 y   -0.044040   -0.060766    0.000000    0.042372    0.061938
 H #2 z    0.000000    0.000000    0.029276    0.000000    0.000000   -0.028359

 CL#3 x   -0.395545    0.047526    0.000000    0.004914    0.001668    0.000000
 CL#3 y    0.047526    0.234077    0.000000    0.001668   -0.001172    0.000000
 CL#3 z    0.000000    0.000000    0.220947    0.000000    0.000000   -0.000917


           CL#3 x      CL#3 y      CL#3 z

 CL#3 x    0.390630
 CL#3 y   -0.049193   -0.232905
 CL#3 z    0.000000    0.000000   -0.220030




                   Nuclear attraction integral Hessian
                   -----------------------------------


           Symmetry 1

           O #1 x      O #1 y      H #2 x      H #2 y      CL#3 x      CL#3 y

 O #1 x  -13.974794
 O #1 y    1.555952    9.817357
 H #2 x   -0.483328    0.817763    0.396255
 H #2 y    0.803788    0.731094   -1.118929   -0.912207
 CL#3 x   14.458123   -2.373715    0.087073    0.315141  -14.545196
 CL#3 y   -2.359740  -10.548451    0.301166    0.181113    2.058574   10.367338


           Symmetry 2

           O #1 z      H #2 z      CL#3 z

 O #1 z   10.838101
 H #2 z   -0.923779    1.063000
 CL#3 z   -9.914322   -0.139221   10.053543




           O #1 x      O #1 y      O #1 z      H #2 x      H #2 y      H #2 z

 O #1 x  -13.974794
 O #1 y    1.555952    9.817357
 O #1 z    0.000000    0.000000   10.838101

 H #2 x   -0.483328    0.817763    0.000000    0.396255
 H #2 y    0.803788    0.731094    0.000000   -1.118929   -0.912207
 H #2 z    0.000000    0.000000   -0.923779    0.000000    0.000000    1.063000

 CL#3 x   14.458123   -2.373715    0.000000    0.087073    0.315141    0.000000
 CL#3 y   -2.359740  -10.548451    0.000000    0.301166    0.181113    0.000000
 CL#3 z    0.000000    0.000000   -9.914322    0.000000    0.000000   -0.139221


           CL#3 x      CL#3 y      CL#3 z

 CL#3 x  -14.545196
 CL#3 y    2.058574   10.367338
 CL#3 z    0.000000    0.000000   10.053543




                Highest order reorthonormalization Hessian
                ------------------------------------------


           Symmetry 1

           O #1 x      O #1 y      H #2 x      H #2 y      CL#3 x      CL#3 y

 O #1 x    0.000000
 O #1 y    0.000000    0.000000
 H #2 x    0.000000    0.000000    0.000000
 H #2 y    0.000000    0.000000    0.000000    0.000000
 CL#3 x    0.000000    0.000000    0.000000    0.000000    0.000000
 CL#3 y    0.000000    0.000000    0.000000    0.000000    0.000000    0.000000


           Symmetry 2

           O #1 z      H #2 z      CL#3 z

 O #1 z    0.000000
 H #2 z    0.000000    0.000000
 CL#3 z    0.000000    0.000000    0.000000




           O #1 x      O #1 y      O #1 z      H #2 x      H #2 y      H #2 z


           CL#3 x      CL#3 y      CL#3 z




                Electronic contributions to dipole moment
                -----------------------------------------

                               au             Debye

                    x      2.16708394      5.50817892
                    y      0.94519687      2.40245122

  Conversion factor used: 1 a.u. =   2.54174691 Debye 



   Electronic contributions to static part of dipole moment derivatives
   --------------------------------------------------------------------


                     Total dipole moment derivatives
                     -------------------------------


           Symmetry 1
                              Ex             Ey

               O #1 x    -8.59218503    -0.07581204
               O #1 y    -0.27838006    -8.65523596
               H #2 x    -0.65850665     0.04540238
               H #2 y     0.30745295    -0.56823349
               CL#3 x   -16.74930832     0.03040965
               CL#3 y    -0.02907288   -16.77653055

           Symmetry 2
                              Ez

               O #1 z    -8.35911980
               H #2 z    -0.81378096
               CL#3 z   -16.82709923



                       Ex          Ey          Ez

      O #1    x   -8.592185   -0.075812    0.000000
      O #1    y   -0.278380   -8.655236    0.000000
      O #1    z    0.000000    0.000000   -8.359120

      H #2    x   -0.658507    0.045402    0.000000
      H #2    y    0.307453   -0.568233    0.000000
      H #2    z    0.000000    0.000000   -0.813781

      CL#3    x  -16.749308    0.030410    0.000000
      CL#3    y   -0.029073  -16.776531    0.000000
      CL#3    z    0.000000    0.000000  -16.827099

 Evaluation of 1e integral derivatives required    1.54 seconds.
 Evaluation of 2el integral derivatives

                      Two-electron integral gradient
                      ------------------------------

                         O #1 x    12.2640843717
                         O #1 y    -2.2932204548
                         H #2 x     0.8612688131
                         H #2 y     1.5211391254
                         CL#3 x   -13.1253531848
                         CL#3 y     0.7720813294


 O #1      12.2640843717           -2.2932204548            0.0000000000
 H #2       0.8612688131            1.5211391254            0.0000000000
 CL#3     -13.1253531848            0.7720813294            0.0000000000


 Evaluation of 2e integral derivatives required  301.67 seconds.

                            Molecular gradient
                            ------------------

                         O #1 x    -0.1378503935
                         O #1 y     0.1323061633
                         H #2 x    -0.0487422829
                         H #2 y    -0.1216262764
                         CL#3 x     0.1865926764
                         CL#3 y    -0.0106798868


 O #1      -0.1378503935            0.1323061633            0.0000000000
 H #2      -0.0487422829           -0.1216262764            0.0000000000
 CL#3       0.1865926764           -0.0106798868            0.0000000000


  Molecular gradient norm 0.298E+00

                            Molecular hessian
                            -----------------


           Symmetry 1

           O #1 x      O #1 y      H #2 x      H #2 y      CL#3 x      CL#3 y

 O #1 x    2.002380
 O #1 y    0.164469    0.983905
 H #2 x   -0.341153   -0.871968    0.257595
 H #2 y   -0.786454   -2.154533    0.779416    2.029058
 CL#3 x   -1.661227    1.206941   -0.038068   -0.097762    1.699295
 CL#3 y    0.621985    1.170628   -0.002612   -0.005281   -0.619373   -1.165348


           Symmetry 2

           O #1 z      H #2 z      CL#3 z

 O #1 z    0.193143
 H #2 z   -0.076246    0.034323
 CL#3 z   -0.116897    0.008840    0.108057




           O #1 x      O #1 y      O #1 z      H #2 x      H #2 y      H #2 z

 O #1 x    2.002380
 O #1 y    0.164469    0.983905
 O #1 z    0.000000    0.000000    0.193143

 H #2 x   -0.341153   -0.871968    0.000000    0.257595
 H #2 y   -0.786454   -2.154533    0.000000    0.779416    2.029058
 H #2 z    0.000000    0.000000   -0.076246    0.000000    0.000000    0.034323

 CL#3 x   -1.661227    1.206941    0.000000   -0.038068   -0.097762    0.000000
 CL#3 y    0.621985    1.170628    0.000000   -0.002612   -0.005281    0.000000
 CL#3 z    0.000000    0.000000   -0.116897    0.000000    0.000000    0.008840


           CL#3 x      CL#3 y      CL#3 z

 CL#3 x    1.699295
 CL#3 y   -0.619373   -1.165348
 CL#3 z    0.000000    0.000000    0.108057




                           Total dipole moment
                           -------------------

                               au             Debye

                    x     -0.05862426     -0.14900803
                    y     -0.50786587     -1.29086650

  Conversion factor used: 1 a.u. =   2.54174691 Debye 



                     Total dipole moment derivatives
                     -------------------------------


           Symmetry 1
                              Ex             Ey

               O #1 x     0.30303336     0.31606796
               O #1 y     0.22232440     0.10350020
               H #2 x    -0.01876272    -0.18366479
               H #2 y    -0.30449815    -0.20173526
               CL#3 x    -0.28427064    -0.13240319
               CL#3 y     0.08217443     0.09823551

           Symmetry 2
                              Ez

               O #1 z    -0.19835078
               H #2 z     0.15243422
               CL#3 z     0.04591642



                       Ex          Ey          Ez

      O #1    x    0.303033    0.316068    0.000000
      O #1    y    0.222324    0.103500    0.000000
      O #1    z    0.000000    0.000000   -0.198351

      H #2    x   -0.018763   -0.183665    0.000000
      H #2    y   -0.304498   -0.201735    0.000000
      H #2    z    0.000000    0.000000    0.152434

      CL#3    x   -0.284271   -0.132403    0.000000
      CL#3    y    0.082174    0.098236    0.000000
      CL#3    z    0.000000    0.000000    0.045916

  Molecular gradient does not satisfy rotational invariance condition.
   rotational invariance in yz-plane :        0.0000E+00
   rotational invariance in xz-plane :        0.0000E+00
   rotational invariance in xy-plane :        -.2730E-01
 @CHECKOUT-I, Total execution time (CPU/WALL):      303.28/      43.09 seconds.
--executable xvdint finished with status     0 in       43.19 seconds (walltime).
 --invoking executable--
/home/asmola/.local/bin/xjoda
  @GTFLGS-I, Hessian will be transformed to curvilinear coordinates.
  @GTFLGS-I, Hessian will be transformed to curvilinear coordinates.
  igrd and ihes are                      0                     1
  gradient from JOBARC 
  -0.137850393539859   0.132306163269455   0.000000000000000
  -0.048742282875981  -0.121626276436949   0.000000000000000
   0.186592676415833  -0.010679886832512   0.000000000000000
 
  @PROJFCM-I, Projecting force constant matrix onto totally symmetric subspace.
  Largest difference between matrix elements of symmetrized
  and unsymmetrized FCM :     0.0000000000E+00.
 
  Summary of diagonal Born-Oppenheimer correction at the correlated level
  The total diagonal Born-Oppenheimer correction (DBOC) is:      0.0087747897 a.u.
  The total diagonal Born-Oppenheimer correction (DBOC) is:       1925.843727 cm-1
  The total diagonal Born-Oppenheimer correction (DBOC) is:            23.038 kJ/mole
  hellooooooo 
  readis is  F
 
 @CHECKOUT-I, Total execution time (CPU/WALL):        0.01/       0.04 seconds.
--executable xjoda finished with status     0 in        0.08 seconds (walltime).
  The final electronic energy is      -535.627752875001420 a.u. 
  This computation required                         3024.97 seconds (walltime).
