 --invoking executable--
/home/asmola/.local/bin/xjoda


   *************************************************************************
         <<<     CCCCCC     CCCCCC   |||     CCCCCC     CCCCCC   >>>
       <<<      CCC        CCC       |||    CCC        CCC         >>>
      <<<      CCC        CCC        |||   CCC        CCC            >>>
    <<<        CCC        CCC        |||   CCC        CCC              >>>
      <<<      CCC        CCC        |||   CCC        CCC            >>>
       <<<      CCC        CCC       |||    CCC        CCC         >>>
         <<<     CCCCCC     CCCCCC   |||     CCCCCC     CCCCCC   >>>
   *************************************************************************

     ****************************************************************
     * CFOUR Coupled-Cluster techniques for Computational Chemistry *
     ****************************************************************
 

   Department of Chemistry                Institut fuer Physikalische Chemie
   University of Florida                  Universitaet Mainz
   Gainesville, FL 32611, USA             D-55099 Mainz, Germany

   Department of Chemistry                Fakultaet fuer Chemie und Biowiss.
   Johns Hopkins University               Karlsruher Institut fuer Technologie
   Baltimore, MD 21218, USA               D-76131 Karlsruhe, Germany

   Department of Chemistry                Department of Physical Chemistry
   Southern Methodist University          Eotvos Lorand University
   Dallas, TX 75275, USA                  H-1053 Budapest, Hungary

 
                       Version 2.1
 
                     vincent.theory.phys.ucl.ac.uk                     
                     Wed 29 Jan 12:24:33 GMT 2025                      
                     integer*8 version is running
 
********************************************************************************
*                          Input from ZMAT file                                *
********************************************************************************
Hypochlorous acid DBOC calculation                                              
O                                                                               
H 1 ROH                                                                         
CL 1 ROCL 2 A                                                                   
                                                                                
ROH=0.65                                                                        
ROCL=1.683                                                                      
A=107.0                                                                         
                                                                                
                                                                                
*CFOUR(CALC=CCSD,BASIS=AUG-PCVTZ,SCF_CONV=10                                    
CC_CONV=10,DBOC=ON,MEMORY=500000000)                                            
********************************************************************************
  @GTFLGS-I, Hessian will be transformed to curvilinear coordinates.
    -------------------------------------------------------------------
                    CFOUR Control Parameters 
    -------------------------------------------------------------------
        External           Internal           Value            Units
          Name               Name
    -------------------------------------------------------------------
       ABCDTYPE             IABCDT         STANDARD    [  0]    ***   
       ANHARMONIC           IANHAR         OFF         [  0]    ***   
       ANH_ALGORIT          IANALG         STANDARD    [  0]    ***   
       ANH_DERIVAT          IANDER         SECOND      [  1]    ***   
       ANH_MODE             ANHMOD         VIBRATION   [  0]    ***   
       ANH_STEPSIZ          ICUBST             50000          x 10-6  
       ANH_SYMMETR          IANHSM         ABELIAN     [  0]    ***   
       AO_LADDERS           IAOLAD         SINGLEPASS  [  1]    ***   
       AV_SCF               IAVSCF         OFF         [  0]    ***   
       BASIS                IBASIS         AUG-PCVTZ   [ 51]    ***   
       BOTHVECTORS          BOTHVC         OFF         [  0]    ***   
       BOX_POTENT           IPIAB          OFF         [  0]    ***   
       BREIT                IBREIT         OFF         [  0]    ***   
       BRUCK_CONV           IBRTOL          10D-  4             ***   
       BRUECKNER            IBRKNR         OFF         [  0]    ***   
       BUFFERSIZE           IBUFFS              4096            ***   
       CACHE_RECS           ICHREC             10               ***   
       CALCLEVEL            ICLLVL         CCSD        [ 10]    ***   
       CCORBOPT             ICCORB         OFF         [  0]  x 0.01  
       CC_CONV              ICCCNV          10D- 10             ***   
       CC_EXPORDER          ICCEOR              5               ***   
       CC_EXTRAPOL          ICCEXT         DIIS        [  1]    ***   
       CC_GUESS             ICCGES         MP2         [  0]    ***   
       CC_MAXCYC            ICCCYC            100              cycles 
       CC_PROGRAM           ICCPRO         VCC         [  0]    ***   
       CHARGE               ICHRGE              0               ***   
       CHOLESKY             ICHOLE         OFF         [  0]    ***   
       CIS_CONV             ICISTL              5               ***   
       COMM_SIZE            IPSIZE            ***               ***   
       CONSTANT             ICONST         OLD         [  1]    ***   
       CONTINUUM            ICONTU         NONE        [  0]    ***   
       CONTRACTION          ICNTYP         GENERAL     [  1]    ***   
       COORDINATES          ICOORD         INTERNAL    [  0]    ***   
       CPHF_CONVER          ICPHFT          10D- 16             ***   
       CPHF_MAXCYC          ICPHFC             64              cycles 
       CUBIC                ICUBIC         OFF         [  0]    ***   
       CURVILINEAR          ICURVY         ON          [  1]    ***   
       DBOC                 IDBOC          ON          [  1]    ***   
       DCT                  IDCT           OFF         [  0]    ***   
       DERIV_LEV            IDRLVL         SECOND      [  2]    ***   
       DEVMEM_SIZE          IDVMEM          50000000           MByte  
       DIAG_MRCC            IEOMST          10D-  0             ***   
       DIFF_TYPE            IDIFTY         RELAXED     [  0]    ***   
       DIRECT               IDIRCT         OFF         [  0]    ***   
       DROPMO               IDRPMO      NONE         
       ECP                  IECP           OFF         [  0]    ***   
       EIGENVECTOR          IVEC                1               ***   
       EL_ANHARM            IELANH         OFF         [  0]    ***   
       EOMFOLLOW            IEOMSR         ENERGY      [  0]    ***   
       EOMIP                IEOMIP         OFF         [  0]    ***   
       EOMLEVEL             HBARFM         SAME        [  0]    ***   
       EOM_MRCC             IMRCCE         NEW         [  1]    ***   
       EOM_NONIT            EOMNON         OFF         [  0]    ***   
       EOM_NSING            IEOMSI          10D-  0             ***   
       EOM_NSTATES          IMRCCD         DAVIDSON    [  0]    ***   
       EOM_NTRIP            IEOMTR          10D-  0             ***   
       EOM_ORDER            IEXORD         ENERGY      [  0]    ***   
       EOM_PROPSTA          IEOMST              0               ***   
       ESTATE_CONV          IEXTOL          10D-  5             ***   
       ESTATE_DIAG          IEXDIG         ITERATIVE   [  0]    ***   
       ESTATE_LOCK          IESLOC         ON          [  1]    ***   
       ESTATE_MAXC          IEXMXC             40               ***   
       ESTATE_PROP          IEXPRP         OFF         [  0]    ***   
       EVAL_HESS            IRECAL              0            # of cyc.
       EXCITATION           IEXCIT              0               ***   
       EXCITE               IEXCIT         NONE        [  0]    ***   
       EXTERN_POT           IEXPOT         OFF         [  0]    ***   
       FCGRADNEW            IFCGNW         OFF         [  0]    ***   
       FC_FIELD             IFINFC              0             x 10-6  
       FD_CALTYPE           IFDCAL         GRADONLY    [  0]    ***   
       FD_PROJECT           IFDPRJ         OFF         [  1]    ***   
       FD_STEPSIZE          IDISFD              0            10-4 bohr
       FD_USEGROUP          IFDGRP         FULL        [  0]    ***   
       FILE_RECSIZ          IFLREC              4096           words  
       FINITE_PERT          IFIPER              0             x 10-6  
       FIXGEOM              IFIXGM         OFF         [  0]    ***   
       FOCK                 IFOCK          AO          [  1]    ***   
       FREQ_ALGORI          IVIALG         STANDARD    [  0]    ***   
       FROZEN_CORE          IFROCO         OFF         [  0]    ***   
       GAMMA_ABCD           IGABCD         STORE       [  0]    ***   
       GAMMA_ABCI           IGABCI         STORE       [  0]    ***   
       GENBAS_1             IGNBS1              0               ***   
       GENBAS_2             IGNBS2              0               ***   
       GENBAS_3             IGNBS3              0               ***   
       GENBAS_4             IGNBS4              0               ***   
       GEO_CONV             ICONTL              5              H/bohr 
       GEO_MAXCYC           IOPTCY             50               ***   
       GEO_MAXSTEP          IMXSTP            300            millibohr
       GEO_METHOD           INR            SINGLE_POINT[  5]    ***   
       GIAO                 IGIAO          OFF         [  1]    ***   
       GIMIC                IGIMIC         OFF         [  0]    ***   
       GRID                 IGRID          OFF         [  0]    ***   
       GRID_ALGO            IGALGO         SERIAL      [  0]    ***   
       GUESS                IGUESS         MOREAD      [  0]    ***   
       HBAR                 IHBAR          OFF         [  0]    ***   
       HESS_TYPE            IHESTP         SCF         [  0]    ***   
       HF2_FILE             IHF2Fl         USE         [  1]    ***   
       HFSTABILITY          ISTABL         OFF         [  0]    ***   
       INCORE               INCORE         OFF         [  0]    ***   
       INPUT_MRCC           IMRCC          ON          [  1]    ***   
       INTEGRALS            INTTYP         VMOL        [  1]    ***   
       JODA_PRINT           IJPRNT              0               ***   
       KEYWORD_OUT          IDMPKW         NO          [  0]    ***   
       LINDEP_TOL           ILINDP              8               ***   
       LINEQ_CONV           IZTACN          10D-  7           cycles  
       LINEQ_EXPOR          ILMAXD              5               ***   
       LINEQ_MAXCY          ILMAXC            100               ***   
       LINEQ_TYPE           ILTYPE         DIIS        [  1]    ***   
       LOCK_ORBOCC          ILOCOC         OFF         [  0]    ***   
       MEMORY_SIZE          IMEMSZ         500000000           words  
       MEM_UNIT             IMEMU          INTEGERWORDS[  0]    ***   
       MRCC                 IMRCCC         OFF         [  0]    ***   
       MULTIPLICTY          IMULTP              1               ***   
       NACOUPLING           IVCOUP         OFF         [  0]    ***   
       NEGEVAL              IDIE           ABORT       [  0]    ***   
       NEWNORM              INEWNO         OFF         [  0]    ***   
       NON-HF               INONHF         OFF         [  0]    ***   
       NTOP_TAMP            ITOPT2             15               ***   
       NUC_MODEL            INUCMO         POINT       [  0]    ***   
       OCCUPATION           IOCCU   ESTIMATED BY SCF 
       OPEN-SHELL           IOPEN          SPIN-ORBITAL[  0]    ***   
       OPTVIB               IOPTVB         OFF         [  0]    ***   
       ORBITALS             IORBTP         STANDARD    [  0]    ***   
       PARALLEL             IPARAL         ON          [  1]    ***   
       PARA_INT             IPINTS         ON          [  1]    ***   
       PARA_PRINT           IPPRIN              0               ***   
       PERT_ORB             IPTORB         STANDARD    [  0]    ***   
       POINTS               IGRDFD              0               ***   
       PRINT                IPRNT               0               ***   
       PROPS                IPROPS         OFF         [  0]    ***   
       PROP_INTEGR          IINTYP         INTERNAL    [  0]    ***   
       PSI                  IPSI           OFF         [  0]    ***   
       QC_ALG               IQCALG         FLM         [  0]    ***   
       QC_LINALG            IQCLIN         TRIDIAG     [  2]    ***   
       QC_MAXCYC            IQCMAX          10D-100           cycles  
       QC_MAXSCFCY          IQCMSC          10D- 15           cycles  
       QC_RTRUST            IQCRTR          10D-  0           x 10-3  
       QC_SKIPSCF           IQCSKI         OFF         [  0]    ***   
       QC_START             IQCSTA          10D-  1             ***   
       QRHFGUESS            IQGUES         OFF         [  0]    ***   
       QUARTIC              IQUART         OFF         [  0]    ***   
       RAMAN_INT            IRAMIN         OFF         [  0]    ***   
       RAMAN_ORB            IRAMRE         UNRELAXED   [  0]    ***   
       RDO                  IRDOFM         ON          [  1]    ***   
       REDUCE_REPR          REDREP         Ir          [  0]    ***   
       REFERENCE            IREFNC         RHF         [  0]    ***   
       RELATIVIST           IRELAT         OFF         [  0]    ***   
       RELAX_DENS           IRDENS         ON          [  1]    ***   
       RESET_FLAGS          IRESET         OFF         [  0]    ***   
       RESTART_CC           ICCRES         OFF         [  0]    ***   
       ROT_EVEC             ROTVEC              0               ***   
       SAVE_INTS            ISVINT         OFF         [  0]    ***   
       SCALE_ON             ISTCRT              0               ***   
       SCF_CONV             ISCFCV          10D- 10             ***   
       SCF_DAMPING          IDAMP               0             x 10-3  
       SCF_EXPORDE          IRPPOR              6               ***   
       SCF_EXPSTAR          IRPPLS              8               ***   
       SCF_EXTRAPO          IRPP           ON          [  1]    ***   
       SCF_MAXCYC           ISCFCY            150              cycles 
       SCF_NOSTOP           ISCFST         OFF         [  0]    ***   
       SCF_PRINT            ISCFPR              0               ***   
       SCF_PROG             ISCFPR         SCF         [  0]    ***   
       SD_FIELD             IFINSD              0             x 10-6  
       SOPERT               IPERSO         OFF         [  0]    ***   
       SPHERICAL            IDFGHI         ON          [  1]    ***   
       SPINORBIT            ISOCAL         OFF         [  0]    ***   
       SPINROTATIO          ISRCON         OFF         [  0]    ***   
       SPIN_FLIP            ISPFLP         OFF         [  0]    ***   
       SPIN_ORBIT           ISPORB         OFF         [  0]    ***   
       SPIN_SCAL            ISCSMP         OFF         [  0]    ***   
       STEEPSCALE           ISTPSC              1000          x 10-3  
       SUBGROUP             ISUBGP         DEFAULT     [  0]    ***   
       SUBGRPAXIS           ISBXYZ         X           [  0]    ***   
       SYMMETRY             ISYM           ON          [  0]    ***   
       SYM_CHECK            ISYMCK         OVERRIDE    [  1]    ***   
       T3_EXTRAPOL          IT3EXT         OFF         [  0]    ***   
       T4_EXTRAPOL          IT4EXP         OFF         [  0]    ***   
       TAMP_SUM             IEVERY              5               ***   
       TESTSUITE            ITESTS         OFF         [  0]    ***   
       THERMOCH             ITHERM         OFF         [  0]    ***   
       TOL_CHOLESK          ITOLCH          10D-  4             ***   
       TRANGRAD             IRESRM         OFF         [  0]    ***   
       TRANS_INV            ITRAIN         IGNORE      [  1]    ***   
       TREAT_PERT           ITREAT         SIMULTANEOUS[  0]    ***   
       TRIP_ALGORI          ITRALG         NORMAL      [  0]    ***   
       UIJ_THRESHO          IUIJTH              1               ***   
       UNITS                IUNITS         ANGSTROM    [  0]    ***   
       UNOS                 IUNOS          OFF         [  0]    ***   
       UPDATE_HESS          IHUPDT         ON          [  1]    ***   
       VIBPHASE             ISETPH         STANDARD    [  0]    ***   
       VIBRATION            IVIB           ANALYTIC    [  1]    ***   
       VIB_ALGORIT          IGEALG         STANDARD    [  0]    ***   
       VNATORB              IVNORB         OFF         [  0]    ***   
       VTRAN                IVTRAN         FULL/PARTIAL[  0]    ***   
       XFIELD               IXEFLD              0             x 10-6  
       XFORM_TOL            IXFTOL          10D- 11             ***   
       YFIELD               IYEFLD              0             x 10-6  
       ZFIELD               IZEFLD              0             x 10-6  
       ZSCALE_EXP           IZEXPS         OFF         [  0]    ***   
    -------------------------------------------------------------------
   3 entries found in Z-matrix 
   Job Title : Hypochlorous acid DBOC calculation                                              
   There are  3 unique internal coordinates.
   Of these,  0 will be optimized.
   User supplied Z-matrix: 
--------------------------------------------------------------------------------
       SYMBOL    BOND      LENGTH    ANGLE     ANGLE     DIHED     ANGLE
                  TO      (ANGST)    WRT      (DEG)      WRT      (DEG)
--------------------------------------------------------------------------------
        O    
        H          1         ROH  
        CL         1         ROCL       2        A    
                  *Initial values for internal coordinates* 
                      Name             Value
                        ROH             0.6500000000
                        ROCL            1.6830000000
                        A             107.0000000000
--------------------------------------------------------------------------------
   Rotational constants (in cm-1): 
          0.5069108812             0.5124718249            46.7146512906
   Rotational constants (in MHz): 
      15196.8080358148         15363.5209563107       1400470.2097039074
********************************************************************************
   The full molecular point group is C s .
   The largest Abelian subgroup of the full molecular point group is C s .
   The computational point group is C s .
********************************************************************************
--------------------------------------------------------------------------------
   Analysis of internal coordinates specified by Z-matrix 
--------------------------------------------------------------------------------
   *The nuclear repulsion energy is   53.833158414726462 a.u.
   *There are   3 degrees of freedom within the tot. symm. molecular subspace.
   *Z-matrix requests optimization of   0 coordinates.
   *The optimization is constrained.
   *The following   3 parameters can have non-zero 
    derivatives within the totally symmetric subspace:
             A    [ 3]  ROCL [ 2]  ROH  [ 1]
   *The following   0 parameters are to be optimized:

   *The following coordinates must be varied in an  unconstrained optimization.
             A    [ 3]  ROCL [ 2]  ROH  [ 1]
--------------------------------------------------------------------------------


 ----------------------------------------------------------------
         Coordinates used in calculation (QCOMP) 
 ----------------------------------------------------------------
 Z-matrix   Atomic            Coordinates (in bohr)
  Symbol    Number           X              Y              Z
 ----------------------------------------------------------------
     O         8        -2.13169342     0.07695217     0.00000000
     H         1        -2.52054236    -1.08819676    -0.00000000
     CL       17         1.04769007    -0.00383574    -0.00000000
 ----------------------------------------------------------------
 
   Interatomic distance matrix (Angstroms) 
 
                 O             H             CL   
                [ 1]        [ 2]        [ 3]
  O    [ 1]     0.00000
  H    [ 2]     0.65000     0.00000
  CL   [ 3]     1.68300     1.97349     0.00000
 rotcon2
   Rotational constants (in cm-1): 
         46.7146512906             0.5124718249             0.5069108812
   Rotational constants (in MHz): 
    1400470.2097038480         15363.5209563107         15196.8080358148
  ECPDATA file not present.   Using default ECPDATA. 
  @GTFLGS-I, Hessian will be transformed to curvilinear coordinates.
  There are  157 basis functions.
 @CHECKOUT-I, Total execution time (CPU/WALL):        0.18/       0.25 seconds.
--executable xjoda finished with status     0 in        0.29 seconds (walltime).
 --invoking executable--
/home/asmola/.local/bin/xvmol
 SERIAL VERSION OF MOLECULE STARTED
********************************************************************************
                    INPUT FROM MOL FILE
********************************************************************************
INTGRL        1    0    1    0    0    0    0    0    0                         
         *** CFOUR Program System (Release V0.1) ***                            
Hypochlorous acid DBOC calculation                                              
    3    1 Z          0.10E-08              0    0                              
   9999.00      3.00                                                            
          8.00000000    1    4    1    1    1    1                              
O #1  -2.131693417666083   0.076952168925221   0.000000000000001                
   13    7                                                                      
   15330.0000000000       5.080000000000000E-004 -1.150000000000000E-004        
  0.000000000000000E+000  0.000000000000000E+000  0.000000000000000E+000        
  0.000000000000000E+000  0.000000000000000E+000                                
   2299.00000000000       3.929000000000000E-003 -8.950000000000000E-004        
  0.000000000000000E+000  0.000000000000000E+000  0.000000000000000E+000        
  0.000000000000000E+000  0.000000000000000E+000                                
   522.400000000000       2.024300000000000E-002 -4.636000000000000E-003        
  0.000000000000000E+000  0.000000000000000E+000  0.000000000000000E+000        
  0.000000000000000E+000  0.000000000000000E+000                                
   147.300000000000       7.918100000000000E-002 -1.872400000000000E-002        
  0.000000000000000E+000  0.000000000000000E+000  0.000000000000000E+000        
  0.000000000000000E+000  0.000000000000000E+000                                
   47.5500000000000       0.230687000000000      -5.846300000000000E-002        
  0.000000000000000E+000  0.000000000000000E+000  0.000000000000000E+000        
  0.000000000000000E+000  0.000000000000000E+000                                
   16.7600000000000       0.433118000000000      -0.136463000000000             
  0.000000000000000E+000  0.000000000000000E+000  0.000000000000000E+000        
  0.000000000000000E+000  0.000000000000000E+000                                
   6.20700000000000       0.350260000000000      -0.175740000000000             
  0.000000000000000E+000  0.000000000000000E+000  0.000000000000000E+000        
  0.000000000000000E+000  0.000000000000000E+000                                
   1.75200000000000       4.272800000000000E-002  0.160934000000000             
   1.00000000000000       0.000000000000000E+000  0.000000000000000E+000        
  0.000000000000000E+000  0.000000000000000E+000                                
  0.688200000000000      -8.154000000000000E-003  0.603418000000000             
  0.000000000000000E+000  0.000000000000000E+000  0.000000000000000E+000        
  0.000000000000000E+000  0.000000000000000E+000                                
  0.238400000000000       2.381000000000000E-003  0.378765000000000             
  0.000000000000000E+000   1.00000000000000       0.000000000000000E+000        
  0.000000000000000E+000  0.000000000000000E+000                                
   7.84500000000000       0.000000000000000E+000  0.000000000000000E+000        
  0.000000000000000E+000  0.000000000000000E+000   1.00000000000000             
  0.000000000000000E+000  0.000000000000000E+000                                
   21.0320000000000       0.000000000000000E+000  0.000000000000000E+000        
  0.000000000000000E+000  0.000000000000000E+000  0.000000000000000E+000        
   1.00000000000000       0.000000000000000E+000                                
  7.376000000000001E-002  0.000000000000000E+000  0.000000000000000E+000        
  0.000000000000000E+000  0.000000000000000E+000  0.000000000000000E+000        
  0.000000000000000E+000   1.00000000000000                                     
    8    6                                                                      
   34.4600000000000       1.592800000000000E-002  0.000000000000000E+000        
  0.000000000000000E+000  0.000000000000000E+000  0.000000000000000E+000        
  0.000000000000000E+000                                                        
   7.74900000000000       9.974000000000000E-002  0.000000000000000E+000        
  0.000000000000000E+000  0.000000000000000E+000  0.000000000000000E+000        
  0.000000000000000E+000                                                        
   2.28000000000000       0.310492000000000       0.000000000000000E+000        
  0.000000000000000E+000  0.000000000000000E+000  0.000000000000000E+000        
  0.000000000000000E+000                                                        
  0.715600000000000       0.491026000000000        1.00000000000000             
  0.000000000000000E+000  0.000000000000000E+000  0.000000000000000E+000        
  0.000000000000000E+000                                                        
  0.214000000000000       0.336337000000000       0.000000000000000E+000        
   1.00000000000000       0.000000000000000E+000  0.000000000000000E+000        
  0.000000000000000E+000                                                        
   15.1590000000000       0.000000000000000E+000  0.000000000000000E+000        
  0.000000000000000E+000   1.00000000000000       0.000000000000000E+000        
  0.000000000000000E+000                                                        
   57.4370000000000       0.000000000000000E+000  0.000000000000000E+000        
  0.000000000000000E+000  0.000000000000000E+000   1.00000000000000             
  0.000000000000000E+000                                                        
  5.974000000000000E-002  0.000000000000000E+000  0.000000000000000E+000        
  0.000000000000000E+000  0.000000000000000E+000  0.000000000000000E+000        
   1.00000000000000                                                             
    4    4                                                                      
   2.31400000000000        1.00000000000000       0.000000000000000E+000        
  0.000000000000000E+000  0.000000000000000E+000                                
  0.645000000000000       0.000000000000000E+000   1.00000000000000             
  0.000000000000000E+000  0.000000000000000E+000                                
   15.8580000000000       0.000000000000000E+000  0.000000000000000E+000        
   1.00000000000000       0.000000000000000E+000                                
  0.214000000000000       0.000000000000000E+000  0.000000000000000E+000        
  0.000000000000000E+000   1.00000000000000                                     
    2    2                                                                      
   1.42800000000000        1.00000000000000       0.000000000000000E+000        
  0.500000000000000       0.000000000000000E+000   1.00000000000000             
          1.00000000    1    3    1    1    1                                   
H #2  -2.520542355101782  -1.088196759446848  -0.000000000000004                
    6    4                                                                      
   33.8700000000000       6.068000000000000E-003  0.000000000000000E+000        
  0.000000000000000E+000  0.000000000000000E+000                                
   5.09500000000000       4.530800000000000E-002  0.000000000000000E+000        
  0.000000000000000E+000  0.000000000000000E+000                                
   1.15900000000000       0.202822000000000       0.000000000000000E+000        
  0.000000000000000E+000  0.000000000000000E+000                                
  0.325800000000000       0.503903000000000        1.00000000000000             
  0.000000000000000E+000  0.000000000000000E+000                                
  0.102700000000000       0.383421000000000       0.000000000000000E+000        
   1.00000000000000       0.000000000000000E+000                                
  2.526000000000000E-002  0.000000000000000E+000  0.000000000000000E+000        
  0.000000000000000E+000   1.00000000000000                                     
    3    3                                                                      
   1.40700000000000        1.00000000000000       0.000000000000000E+000        
  0.000000000000000E+000                                                        
  0.388000000000000       0.000000000000000E+000   1.00000000000000             
  0.000000000000000E+000                                                        
  0.102000000000000       0.000000000000000E+000  0.000000000000000E+000        
   1.00000000000000                                                             
    2    2                                                                      
   1.05700000000000        1.00000000000000       0.000000000000000E+000        
  0.247000000000000       0.000000000000000E+000   1.00000000000000             
         17.00000000    1    4    1    1    1    1                              
CL#3   1.047690074720406  -0.003835740235633  -0.000000000000000                
   18    8                                                                      
   456100.000000000       4.930000000000000E-005 -1.380000000000000E-005        
  4.200000000000000E-006  0.000000000000000E+000  0.000000000000000E+000        
  0.000000000000000E+000  0.000000000000000E+000  0.000000000000000E+000        
   68330.0000000000       3.830000000000000E-004 -1.073000000000000E-004        
  3.240000000000000E-005  0.000000000000000E+000  0.000000000000000E+000        
  0.000000000000000E+000  0.000000000000000E+000  0.000000000000000E+000        
   15550.0000000000       2.008500000000000E-003 -5.651000000000000E-004        
  1.711000000000000E-004  0.000000000000000E+000  0.000000000000000E+000        
  0.000000000000000E+000  0.000000000000000E+000  0.000000000000000E+000        
   4405.00000000000       8.385600000000000E-003 -2.361400000000000E-003        
  7.142000000000000E-004  0.000000000000000E+000  0.000000000000000E+000        
  0.000000000000000E+000  0.000000000000000E+000  0.000000000000000E+000        
   1439.00000000000       2.947030000000000E-002 -8.458900000000000E-003        
  2.567000000000000E-003  0.000000000000000E+000  0.000000000000000E+000        
  0.000000000000000E+000  0.000000000000000E+000  0.000000000000000E+000        
   520.400000000000       8.783249999999999E-002 -2.596380000000000E-002        
  7.885500000000000E-003  0.000000000000000E+000  0.000000000000000E+000        
  0.000000000000000E+000  0.000000000000000E+000  0.000000000000000E+000        
   203.100000000000       0.211473000000000      -6.863619999999999E-002        
  2.108670000000000E-002  0.000000000000000E+000  0.000000000000000E+000        
  0.000000000000000E+000  0.000000000000000E+000  0.000000000000000E+000        
   83.9600000000000       0.365364000000000      -0.141874000000000             
  4.422640000000000E-002  0.000000000000000E+000  0.000000000000000E+000        
  0.000000000000000E+000  0.000000000000000E+000  0.000000000000000E+000        
   36.2000000000000       0.340884000000000      -0.199319000000000             
  6.516700000000000E-002  0.000000000000000E+000  0.000000000000000E+000        
  0.000000000000000E+000  0.000000000000000E+000  0.000000000000000E+000        
   15.8300000000000       0.102133000000000      -1.956620000000000E-002        
  6.030100000000000E-003  0.000000000000000E+000  0.000000000000000E+000        
  0.000000000000000E+000  0.000000000000000E+000  0.000000000000000E+000        
   6.33400000000000       3.116800000000000E-003  0.499741000000000             
 -0.206495000000000       0.000000000000000E+000  0.000000000000000E+000        
  0.000000000000000E+000  0.000000000000000E+000  0.000000000000000E+000        
   2.69400000000000       1.057500000000000E-003  0.563736000000000             
 -0.405871000000000       0.000000000000000E+000  0.000000000000000E+000        
  0.000000000000000E+000  0.000000000000000E+000  0.000000000000000E+000        
  0.976800000000000      -3.780000000000000E-004  7.903250000000001E-002        
  7.595580000000000E-002   1.00000000000000       0.000000000000000E+000        
  0.000000000000000E+000  0.000000000000000E+000  0.000000000000000E+000        
  0.431300000000000       1.561000000000000E-004 -8.350900000000000E-003        
  0.725661000000000       0.000000000000000E+000  0.000000000000000E+000        
  0.000000000000000E+000  0.000000000000000E+000  0.000000000000000E+000        
  0.162500000000000      -5.140000000000000E-005  2.324600000000000E-003        
  0.394423000000000       0.000000000000000E+000   1.00000000000000             
  0.000000000000000E+000  0.000000000000000E+000  0.000000000000000E+000        
   15.0640000000000       0.000000000000000E+000  0.000000000000000E+000        
  0.000000000000000E+000  0.000000000000000E+000  0.000000000000000E+000        
   1.00000000000000       0.000000000000000E+000  0.000000000000000E+000        
   2.87400000000000       0.000000000000000E+000  0.000000000000000E+000        
  0.000000000000000E+000  0.000000000000000E+000  0.000000000000000E+000        
  0.000000000000000E+000   1.00000000000000       0.000000000000000E+000        
  5.910000000000000E-002  0.000000000000000E+000  0.000000000000000E+000        
  0.000000000000000E+000  0.000000000000000E+000  0.000000000000000E+000        
  0.000000000000000E+000  0.000000000000000E+000   1.00000000000000             
   12    7                                                                      
   663.300000000000       2.404500000000000E-003 -6.521000000000000E-004        
  0.000000000000000E+000  0.000000000000000E+000  0.000000000000000E+000        
  0.000000000000000E+000  0.000000000000000E+000                                
   156.800000000000       1.921480000000000E-002 -5.194500000000000E-003        
  0.000000000000000E+000  0.000000000000000E+000  0.000000000000000E+000        
  0.000000000000000E+000  0.000000000000000E+000                                
   49.9800000000000       8.850970000000000E-002 -2.469380000000000E-002        
  0.000000000000000E+000  0.000000000000000E+000  0.000000000000000E+000        
  0.000000000000000E+000  0.000000000000000E+000                                
   18.4200000000000       0.256020000000000      -7.281670000000000E-002        
  0.000000000000000E+000  0.000000000000000E+000  0.000000000000000E+000        
  0.000000000000000E+000  0.000000000000000E+000                                
   7.24000000000000       0.436927000000000      -0.134030000000000             
  0.000000000000000E+000  0.000000000000000E+000  0.000000000000000E+000        
  0.000000000000000E+000  0.000000000000000E+000                                
   2.92200000000000       0.350334000000000      -9.477420000000000E-002        
  0.000000000000000E+000  0.000000000000000E+000  0.000000000000000E+000        
  0.000000000000000E+000  0.000000000000000E+000                                
   1.02200000000000       5.854950000000000E-002  0.262289000000000             
   1.00000000000000       0.000000000000000E+000  0.000000000000000E+000        
  0.000000000000000E+000  0.000000000000000E+000                                
  0.381800000000000      -4.584200000000000E-003  0.564667000000000             
  0.000000000000000E+000  0.000000000000000E+000  0.000000000000000E+000        
  0.000000000000000E+000  0.000000000000000E+000                                
  0.130100000000000       2.269700000000000E-003  0.341250000000000             
  0.000000000000000E+000   1.00000000000000       0.000000000000000E+000        
  0.000000000000000E+000  0.000000000000000E+000                                
   9.48000000000000       0.000000000000000E+000  0.000000000000000E+000        
  0.000000000000000E+000  0.000000000000000E+000   1.00000000000000             
  0.000000000000000E+000  0.000000000000000E+000                                
   3.66800000000000       0.000000000000000E+000  0.000000000000000E+000        
  0.000000000000000E+000  0.000000000000000E+000  0.000000000000000E+000        
   1.00000000000000       0.000000000000000E+000                                
  4.190000000000000E-002  0.000000000000000E+000  0.000000000000000E+000        
  0.000000000000000E+000  0.000000000000000E+000  0.000000000000000E+000        
  0.000000000000000E+000   1.00000000000000                                     
    5    5                                                                      
   1.04600000000000        1.00000000000000       0.000000000000000E+000        
  0.000000000000000E+000  0.000000000000000E+000  0.000000000000000E+000        
  0.344000000000000       0.000000000000000E+000   1.00000000000000             
  0.000000000000000E+000  0.000000000000000E+000  0.000000000000000E+000        
   17.9570000000000       0.000000000000000E+000  0.000000000000000E+000        
   1.00000000000000       0.000000000000000E+000  0.000000000000000E+000        
   5.76000000000000       0.000000000000000E+000  0.000000000000000E+000        
  0.000000000000000E+000   1.00000000000000       0.000000000000000E+000        
  0.135000000000000       0.000000000000000E+000  0.000000000000000E+000        
  0.000000000000000E+000  0.000000000000000E+000   1.00000000000000             
    3    3                                                                      
  0.706000000000000        1.00000000000000       0.000000000000000E+000        
  0.000000000000000E+000                                                        
   11.7790000000000       0.000000000000000E+000   1.00000000000000             
  0.000000000000000E+000                                                        
  0.312000000000000       0.000000000000000E+000  0.000000000000000E+000        
   1.00000000000000                                                             
FINISH                                                                          
 
********************************************************************************
 ONE- AND TWO-ELECTRON INTEGRALS OVER SYMMETRY-ADAPTED AOS ARE CALCULATED.

  SPHERICAL HARMONICS ARE USED.
  
  INTEGRALS LESS THAN  0.10E-13 ARE NEGLECTED.

  NUCLEAR REPULSION ENERGY :   53.8331584147 A.U.
  @MOLECU-I, ONE ELECTRON INTEGRALS (CPU/WALL):        0.04/       0.05 SECONDS.
  @TWOEL-I,   14250734 INTEGRALS OF SYMMETRY TYPE  I I I I
  @TWOEL-I,   13497939 INTEGRALS OF SYMMETRY TYPE  I J I J
  @TWOEL-I,    6957597 INTEGRALS OF SYMMETRY TYPE  I I J J
  @TWOEL-I, TOTAL NUMBER OF 2-E INTEGRALS   34706270.
  @MOLECU-I, TWO ELECTRON INTEGRALS (CPU/WALL):       72.58/      11.05 SECONDS.
 @CHECKOUT-I, Total execution time (CPU/WALL):       72.63/      11.12 seconds.

Running with 14 threads/proc

--executable xvmol finished with status     0 in       11.16 seconds (walltime).
 --invoking executable--
/home/asmola/.local/bin/xvmol2ja
 @GETMEM-I,  Allocated    3814 MB of main memory.
 @CHECKOUT-I, Total execution time (CPU/WALL):        0.10/       0.03 seconds.
--executable xvmol2ja finished with status     0 in        0.06 seconds (walltime).
 --invoking executable--
/home/asmola/.local/bin/xvscf
  There are  157 functions in the AO basis.

  There are 2 irreducible representations.

       Irrep        # of functions
         1                104
         2                 53


  Parameters for SCF calculation: 
        SCF reference function:  RHF  
  Maximum number of iterations:  150
     Full symmetry point group: C s 
     Computational point group: C s 
        Initial density matrix: MOREAD                 
     SCF convergence tolerance: 10**(-10)
  DIIS convergence acceleration:  ON
          Latest start for DIIS:   8
                     DIIS order:   6

  Memory information:    1209746 words required.
  Fock matrices are constructed from AO integral file.
 @GETMEM-I,  Allocated       9 MB of main memory.
  Initialization and symmetry analysis required      0.001 seconds.

  @INITGES-I, Occupancies from core Hamiltonian:

          Alpha population by irrep:  10    3
           Beta population by irrep:  10    3


 total no. of electrons in initial guess :  0.000000000000000E+000
  --------------------------------------------------------------------
  Iteration         Total Energy            Largest Density Difference
  --------------------------------------------------------------------
       0            53.833158414726476              0.0000000000D+00
   current occupation vector 
    10  3
    10  3
       1          -363.718978341785601              0.1326942501D+02
   current occupation vector 
    10  3
    10  3
       2          -334.605098429200666              0.1325511169D+02
   current occupation vector 
    10  3
    10  3
       3          -419.494013416672715              0.1164633602D+02
   current occupation vector 
    10  3
    10  3
       4          -331.145459665485248              0.1248206618D+02
   current occupation vector 
    10  3
    10  3
       5          -419.091676818331393              0.1248187584D+02
   current occupation vector 
    10  3
    10  3
       6          -331.038898160920724              0.1249080111D+02
   current occupation vector 
    10  3
    10  3
       7          -419.081183174565638              0.1249079593D+02
   current occupation vector 
    10  3
    10  3
       8          -331.036068981518611              0.1249092915D+02
   current occupation vector 
    10  3
    10  3
       9          -449.947989455822267              0.1249366061D+02
   current occupation vector 
    10  3
    10  3
      10          -471.529251592790217              0.2405908928D+01
   current occupation vector 
    10  3
    10  3
      11          -487.146560507902507              0.2044395200D+01
   current occupation vector 
    10  3
    10  3
      12          -507.287982237781932              0.1151524104D+01
   current occupation vector 
    10  3
    10  3
      13          -513.830833261642056              0.4367505797D+00
   current occupation vector 
    10  3
    10  3
      14          -531.504673394864540              0.1657039064D+01
   current occupation vector 
    10  3
    10  3
      15          -534.536225744622016              0.7234827392D+00
   current occupation vector 
    10  3
    10  3
      16          -534.664720349870890              0.5732023103D+00
   current occupation vector 
    10  3
    10  3
      17          -534.714150924314708              0.2510239724D+00
   current occupation vector 
    10  3
    10  3
      18          -534.720471299638007              0.6150703599D-01
   current occupation vector 
    10  3
    10  3
      19          -534.722082190677725              0.4141596810D-01
   current occupation vector 
    10  3
    10  3
      20          -534.722312633065371              0.1746158939D-01
   current occupation vector 
    10  3
    10  3
      21          -534.722338503174910              0.6060244658D-02
   current occupation vector 
    10  3
    10  3
      22          -534.722341234873738              0.2331158769D-02
   current occupation vector 
    10  3
    10  3
      23          -534.722341999393166              0.1545866539D-02
   current occupation vector 
    10  3
    10  3
      24          -534.722342100224409              0.6745875700D-03
   current occupation vector 
    10  3
    10  3
      25          -534.722342104481072              0.8963587107D-04
   current occupation vector 
    10  3
    10  3
      26          -534.722342104796098              0.1991738123D-04
   current occupation vector 
    10  3
    10  3
      27          -534.722342104829181              0.7491217273D-05
   current occupation vector 
    10  3
    10  3
      28          -534.722342104834070              0.2237129893D-05
   current occupation vector 
    10  3
    10  3
      29          -534.722342104828044              0.7614263993D-06
   current occupation vector 
    10  3
    10  3
      30          -534.722342104829636              0.1753726091D-06
   current occupation vector 
    10  3
    10  3
      31          -534.722342104830091              0.1218200761D-06
   current occupation vector 
    10  3
    10  3
      32          -534.722342104831114              0.9034237855D-07
   current occupation vector 
    10  3
    10  3
      33          -534.722342104831682              0.3015902689D-07
   current occupation vector 
    10  3
    10  3
      34          -534.722342104834297              0.8104458410D-08
   current occupation vector 
    10  3
    10  3
      35          -534.722342104827021              0.1308256614D-08
   current occupation vector 
    10  3
    10  3
      36          -534.722342104830659              0.7505613908D-09
   current occupation vector 
    10  3
    10  3
      37          -534.722342104833274              0.2066564697D-09
   current occupation vector 
    10  3
    10  3
      38          -534.722342104834297              0.2815835343D-09
   current occupation vector 
    10  3
    10  3

  SCF has converged.

 Density matrix saved to file den.dat
 total electron number:   26.0000000000004     
     E(SCF)=      -534.722342104833956              0.7830014415D-10

  Eigenvector printing suppressed.

 @PUTMOS-I, Writing converged MOs to NEWMOS. 
 @PUTMOS-I, Symmetry   1 Full Blocks 26 Partial Blocksize   0
 @PUTMOS-I, Symmetry   2 Full Blocks 13 Partial Blocksize   1
 @PUTFOCK-I, Writing converged Fock matrix to NEWFOCK. 
 @PUTFOCK-I, Symmetry   1 Full Blocks 26 Partial Blocksize   0
 @PUTFOCK-I, Symmetry   2 Full Blocks 13 Partial Blocksize   1


 
  ORBITAL EIGENVALUES (ALPHA)  (1H = 27.2113834 eV)

       MO #        E(hartree)               E(eV)           FULLSYM    COMPSYM
       ----   --------------------   --------------------   -------   ---------
    1     1        -104.9021634767       -2854.5329898548     A'        A'  (1)
    2     2         -20.6064165606        -560.7291015293     A'        A'  (1)
    3     3         -10.6217190342        -289.0316690059     A'        A'  (1)
    4     4          -8.0884429257        -220.0977215602     A'        A'  (1)
    5     5          -8.0860467655        -220.0325187273     A'        A'  (1)
    6   105          -8.0858885691        -220.0282139848     A''       A'' (2)
    7     6          -1.5337227313         -41.7347172707     A'        A'  (1)
    8     7          -1.1078006137         -30.1447872296     A'        A'  (1)
    9     8          -0.7946659863         -21.6239608291     A'        A'  (1)
   10   106          -0.6286481651         -17.1063862454     A''       A'' (2)
   11     9          -0.6206021359         -16.8874426599     A'        A'  (1)
   12    10          -0.4817300198         -13.1085402629     A'        A'  (1)
   13   107          -0.4544178340         -12.3653379041     A''       A'' (2)
  +++++++++++++++++++++++++++++++++++++++++++++++++++++++++++++++++++++++++++++
   14    11           0.0331104717           0.9009817392     A'        A'  (1)
   15    12           0.0592630429           1.6126293826     A'        A'  (1)
   16    13           0.1087523184           2.9593010303     A'        A'  (1)
   17   108           0.1142470875           3.1088213016     A''       A'' (2)
   18    14           0.1367454270           3.7210322431     A'        A'  (1)
   19    15           0.1564258965           4.2565650424     A'        A'  (1)
   20    16           0.1690991562           4.6014219720     A'        A'  (1)
   21   109           0.1782077865           4.8492804044     A''       A'' (2)
   22    17           0.1829260320           4.9776703916     A'        A'  (1)
   23    18           0.2612582438           7.1091982396     A'        A'  (1)
   24   110           0.2767896070           7.5318281165     A''       A'' (2)
   25    19           0.3086410868           8.3985509448     A'        A'  (1)
   26    20           0.3300907925           8.9822271102     A'        A'  (1)
   27   111           0.3880381185          10.5590540164     A''       A'' (2)
   28    21           0.3907466020          10.6327555997     A'        A'  (1)
   29   112           0.4148594419          11.2888993296     A''       A'' (2)
   30    22           0.4304950745          11.7143665249     A'        A'  (1)
   31    23           0.4804363456          13.0733375993     A'        A'  (1)
   32    24           0.4964768090          13.5098207986     A'        A'  (1)
   33   113           0.6089965915          16.5716397419     A''       A'' (2)
   34    25           0.6291759757          17.1207487012     A'        A'  (1)
   35    26           0.6640078376          18.0685718499     A'        A'  (1)
   36    27           0.7205111470          19.6061050657     A'        A'  (1)
   37   114           0.7336073665          19.9624713141     A''       A'' (2)
   38    28           0.7357140302          20.0197965490     A'        A'  (1)
   39   115           0.7697164279          20.9450488277     A''       A'' (2)
   40    29           0.8012242054          21.8024190415     A'        A'  (1)
   41    30           0.8510797320          23.1590568918     A'        A'  (1)
   42   116           0.8629587974          23.4823026941     A''       A'' (2)
   43    31           0.9040271001          24.5998280258     A'        A'  (1)
   44   117           0.9074985378          24.6942906479     A''       A'' (2)
   45    32           0.9198358945          25.0300071895     A'        A'  (1)
   46   118           0.9365659450          25.4852550099     A''       A'' (2)
   47    33           0.9464659529          25.7546479202     A'        A'  (1)
   48    34           0.9766499122          26.5759952096     A'        A'  (1)
   49    35           1.0001358613          27.2150803750     A'        A'  (1)
   50   119           1.0314306636          28.0666552370     A''       A'' (2)
   51   120           1.0944173372          29.7806097623     A''       A'' (2)
   52    36           1.1175026182          30.4087921956     A'        A'  (1)
   53    37           1.1772471779          32.0345243139     A'        A'  (1)
   54   121           1.2374192107          33.6718885683     A''       A'' (2)
   55    38           1.2434948514          33.8372151572     A'        A'  (1)
   56    39           1.3273276501          36.1184215844     A'        A'  (1)
   57    40           1.3728970683          37.3584284935     A'        A'  (1)
   58   122           1.4422918041          39.2467552567     A''       A'' (2)
   59    41           1.4490988444          39.4319842381     A'        A'  (1)
   60   123           1.5068471635          41.0033958902     A''       A'' (2)
   61    42           1.5555918152          42.3298052965     A'        A'  (1)
   62    43           1.6805599497          45.7303611172     A'        A'  (1)
   63   124           1.7080374754          46.4780626058     A''       A'' (2)
   64    44           1.7618499901          47.9423755727     A'        A'  (1)
   65    45           1.8177618653          49.4638150471     A'        A'  (1)
   66   125           2.1690729517          59.0234757107     A''       A'' (2)
   67    46           2.2316539144          60.7263902801     A'        A'  (1)
   68    47           2.2360059556          60.8448153419     A'        A'  (1)
   69    48           2.2960183236          62.4778348968     A'        A'  (1)
   70   126           2.3108079421          62.8802808751     A''       A'' (2)
   71   127           2.3431860910          63.7613350988     A''       A'' (2)
   72    49           2.3436503948          63.7739694497     A'        A'  (1)
   73    50           2.3867165116          64.9458580637     A'        A'  (1)
   74    51           2.4415119545          66.4369178697     A'        A'  (1)
   75   128           2.4527414098          66.7424868841     A''       A'' (2)
   76    52           2.4731410798          67.2975901245     A'        A'  (1)
   77   129           2.4736605358          67.3117252398     A''       A'' (2)
   78   130           2.5159981608          68.4637905883     A''       A'' (2)
   79    53           2.5471601359          69.3117510386     A'        A'  (1)
   80   131           2.6461942351          72.0066058816     A''       A'' (2)
   81    54           2.6661491312          72.5496062106     A'        A'  (1)
   82    55           2.8283384580          76.9630021658     A'        A'  (1)
   83   132           2.8937443254          78.7427862988     A''       A'' (2)
   84    56           2.9425954889          80.0720940402     A'        A'  (1)
   85    57           2.9753707460          80.9639541279     A'        A'  (1)
   86   133           3.0475140648          82.9270736340     A''       A'' (2)
   87    58           3.0512638965          83.0291117420     A'        A'  (1)
   88    59           3.1231244275          84.9845362026     A'        A'  (1)
   89   134           3.1530458815          85.7987403582     A''       A'' (2)
   90    60           3.2627392813          88.7836495164     A'        A'  (1)
   91    61           3.3555241456          91.3084540328     A'        A'  (1)
   92   135           3.3762353385          91.8720342447     A''       A'' (2)
   93    62           3.5216748662          95.8296449956     A'        A'  (1)
   94    63           3.9476541375         107.4211302649     A'        A'  (1)
   95    64           4.0082070510         109.0688588122     A'        A'  (1)
   96   136           4.3316251343         117.8695122757     A''       A'' (2)
   97    65           4.5423026576         123.6023391341     A'        A'  (1)
   98   137           4.5534453684         123.9055477097     A''       A'' (2)
   99   138           4.5954720432         125.0491516727     A''       A'' (2)
  100    66           4.6985219192         127.8532813561     A'        A'  (1)
  101    67           4.8591102432         132.2231118115     A'        A'  (1)
  102    68           5.2154177138         141.9187310019     A'        A'  (1)
  103   139           5.8173694131         158.2986694799     A''       A'' (2)
  104    69           5.9706525218         162.4697149197     A'        A'  (1)
  105    70           6.0803760868         165.4554449149     A'        A'  (1)
  106    71           6.3637081002         173.1653009599     A'        A'  (1)
  107    72           6.6659897785         181.3908036030     A'        A'  (1)
  108   140           6.7055884601         182.4683385116     A''       A'' (2)
  109    73           6.7076846341         182.5253783040     A'        A'  (1)
  110   141           6.8482043871         186.3491151793     A''       A'' (2)
  111    74           6.9066187785         187.9386515806     A'        A'  (1)
  112   142           6.9392483549         188.8265474933     A''       A'' (2)
  113    75           7.0824160987         192.7223398595     A'        A'  (1)
  114   143           7.1575595970         194.7670984012     A''       A'' (2)
  115    76           7.5847894127         206.3926127185     A'        A'  (1)
  116   144           8.8437815369         240.6515301052     A''       A'' (2)
  117    77           8.8616823447         241.1386358507     A'        A'  (1)
  118    78           8.9713110763         244.1217852978     A'        A'  (1)
  119    79          10.3392753343         281.3459852002     A'        A'  (1)
  120   145          10.3395419611         281.3532404842     A''       A'' (2)
  121   146          10.3770489432         282.3738573546     A''       A'' (2)
  122    80          10.4416205312         284.1309395920     A'        A'  (1)
  123    81          10.6157688849         288.8697572123     A'        A'  (1)
  124    82          11.2551042722         306.2669575577     A'        A'  (1)
  125   147          12.6697258703         344.7607682296     A''       A'' (2)
  126    83          12.7275493498         346.3342250998     A'        A'  (1)
  127    84          13.2270040903         359.9250795332     A'        A'  (1)
  128    85          18.2948261680         497.8275290945     A'        A'  (1)
  129   148          26.4566247563         719.9213597149     A''       A'' (2)
  130    86          26.7579001288         728.1194793839     A'        A'  (1)
  131    87          28.3551650702         771.5832680967     A'        A'  (1)
  132    88          29.9890165562         816.0426272999     A'        A'  (1)
  133   149          36.8845797667        1003.6804415801     A''       A'' (2)
  134    89          36.8846783105        1003.6831230921     A'        A'  (1)
  135   150          36.8851323142        1003.6954771613     A''       A'' (2)
  136    90          36.8903891508        1003.8385229565     A'        A'  (1)
  137   151          36.8937122945        1003.9289502959     A''       A'' (2)
  138    91          36.8937817344        1003.9308398519     A'        A'  (1)
  139    92          36.8976627952        1004.0364488837     A'        A'  (1)
  140   152          43.9438880585        1195.7739860477     A''       A'' (2)
  141    93          44.0420152672        1198.4441631444     A'        A'  (1)
  142   153          44.3129153130        1205.8157281544     A''       A'' (2)
  143    94          44.3544139054        1206.9449622615     A'        A'  (1)
  144    95          44.8143741227        1219.4611160831     A'        A'  (1)
  145    96          46.4717719803        1264.5612046328     A'        A'  (1)
  146   154          46.4719447931        1264.5659071095     A''       A'' (2)
  147   155          46.4961624278        1265.2249024503     A''       A'' (2)
  148    97          46.5299908017        1266.1454193027     A'        A'  (1)
  149    98          46.6161694136        1268.4904585542     A'        A'  (1)
  150   156          55.0088250283        1496.8662282275     A''       A'' (2)
  151    99          55.0720529608        1498.5867477414     A'        A'  (1)
  152   100          55.6538375488        1514.4179112214     A'        A'  (1)
  153   101         103.9232558610        2827.8955594093     A'        A'  (1)
  154   157         138.5411376361        3769.8960128871     A''       A'' (2)
  155   102         138.7518192810        3775.6289519023     A'        A'  (1)
  156   103         140.2879247300        3817.4285062175     A'        A'  (1)
  157   104         150.6644763897        4099.7888318004     A'        A'  (1)


  VSCF finished.

 @CHECKOUT-I, Total execution time (CPU/WALL):       64.17/      12.74 seconds.
--executable xvscf finished with status     0 in       12.76 seconds (walltime).
 --invoking executable--
/home/asmola/.local/bin/xvtran
 @GETMEM-I,  Allocated    3814 MB of main memory.
  Full RHF integral transformation
  Transformation of IIII integrals :
  1 pass through the AO integral file was required.
    14250734 AO integrals were read.
    15933126 MO integrals were written to HF2.
  Transformation of IIJJ integrals :
  1 pass through the AO integral file was required.
     6957597 AO integrals were read.
     7813260 MO integrals were written to HF2.
  Transformation of IJIJ integrals :
  1 pass through the AO integral file was required.
    13497939 AO integrals were read.
    15193828 MO integrals were written to HF2.
  Summary of active molecular orbitals: 
------------------------------------------------------------------------
 
  Index      Eigenvalue    Symmetry    Index      Eigenvalue    Symmetry
------------------------------------------------------------------------
     1      -104.9021635        1        80         8.8616823        1
     2       -20.6064166        1        81         8.9713111        1
     3       -10.6217190        1        82        10.3392753        1
     4        -8.0884429        1        83        10.4416205        1
     5        -8.0860468        1        84        10.6157689        1
     6        -1.5337227        1        85        11.2551043        1
     7        -1.1078006        1        86        12.7275493        1
     8        -0.7946660        1        87        13.2270041        1
     9        -0.6206021        1        88        18.2948262        1
    10        -0.4817300        1        89        26.7579001        1
    11        -8.0858886        2        90        28.3551651        1
    12        -0.6286482        2        91        29.9890166        1
    13        -0.4544178        2        92        36.8846783        1
    14         0.0331105        1        93        36.8903892        1
    15         0.0592630        1        94        36.8937817        1
    16         0.1087523        1        95        36.8976628        1
    17         0.1367454        1        96        44.0420153        1
    18         0.1564259        1        97        44.3544139        1
    19         0.1690992        1        98        44.8143741        1
    20         0.1829260        1        99        46.4717720        1
    21         0.2612582        1       100        46.5299908        1
    22         0.3086411        1       101        46.6161694        1
    23         0.3300908        1       102        55.0720530        1
    24         0.3907466        1       103        55.6538375        1
    25         0.4304951        1       104       103.9232559        1
    26         0.4804363        1       105       138.7518193        1
    27         0.4964768        1       106       140.2879247        1
    28         0.6291760        1       107       150.6644764        1
    29         0.6640078        1       108         0.1142471        2
    30         0.7205111        1       109         0.1782078        2
    31         0.7357140        1       110         0.2767896        2
    32         0.8012242        1       111         0.3880381        2
    33         0.8510797        1       112         0.4148594        2
    34         0.9040271        1       113         0.6089966        2
    35         0.9198359        1       114         0.7336074        2
    36         0.9464660        1       115         0.7697164        2
    37         0.9766499        1       116         0.8629588        2
    38         1.0001359        1       117         0.9074985        2
    39         1.1175026        1       118         0.9365659        2
    40         1.1772472        1       119         1.0314307        2
    41         1.2434949        1       120         1.0944173        2
    42         1.3273277        1       121         1.2374192        2
    43         1.3728971        1       122         1.4422918        2
    44         1.4490988        1       123         1.5068472        2
    45         1.5555918        1       124         1.7080375        2
    46         1.6805599        1       125         2.1690730        2
    47         1.7618500        1       126         2.3108079        2
    48         1.8177619        1       127         2.3431861        2
    49         2.2316539        1       128         2.4527414        2
    50         2.2360060        1       129         2.4736605        2
    51         2.2960183        1       130         2.5159982        2
    52         2.3436504        1       131         2.6461942        2
    53         2.3867165        1       132         2.8937443        2
    54         2.4415120        1       133         3.0475141        2
    55         2.4731411        1       134         3.1530459        2
    56         2.5471601        1       135         3.3762353        2
    57         2.6661491        1       136         4.3316251        2
    58         2.8283385        1       137         4.5534454        2
    59         2.9425955        1       138         4.5954720        2
    60         2.9753707        1       139         5.8173694        2
    61         3.0512639        1       140         6.7055885        2
    62         3.1231244        1       141         6.8482044        2
    63         3.2627393        1       142         6.9392484        2
    64         3.3555241        1       143         7.1575596        2
    65         3.5216749        1       144         8.8437815        2
    66         3.9476541        1       145        10.3395420        2
    67         4.0082071        1       146        10.3770489        2
    68         4.5423027        1       147        12.6697259        2
    69         4.6985219        1       148        26.4566248        2
    70         4.8591102        1       149        36.8845798        2
    71         5.2154177        1       150        36.8851323        2
    72         5.9706525        1       151        36.8937123        2
    73         6.0803761        1       152        43.9438881        2
    74         6.3637081        1       153        44.3129153        2
    75         6.6659898        1       154        46.4719448        2
    76         6.7076846        1       155        46.4961624        2
    77         6.9066188        1       156        55.0088250        2
    78         7.0824161        1       157       138.5411376        2
    79         7.5847894        1
------------------------------------------------------------------------
  -104.902163476731       -20.6064165605511       -10.6217190341701     
  -8.08844292569673       -8.08604676553534       -1.53372273130076     
  -1.10780061368174      -0.794665986334405      -0.620602135938030     
 -0.481730019757130       -8.08588856914822      -0.628648165143287     
 -0.454417833975388       3.311047166978866E-002  5.926304292959629E-002
  0.108752318350397       0.136745427029528       0.156425896465989     
  0.169099156202249       0.182926032038202       0.261258243842876     
  0.308641086761103       0.330090792450172       0.390746602014638     
  0.430495074533448       0.480436345594374       0.496476808988213     
  0.629175975712899       0.664007837614212       0.720511147025094     
  0.735714030218685       0.801224205362454       0.851079732014674     
  0.904027100135128       0.919835894471444       0.946465952927614     
  0.976649912243033        1.00013586134095        1.11750261824512     
   1.17724717788044        1.24349485139289        1.32732765010539     
   1.37289706827138        1.44909884435006        1.55559181516998     
   1.68055994967200        1.76184999005437        1.81776186532074     
   2.23165391437398        2.23600595557809        2.29601832359736     
   2.34365039484585        2.38671651157923        2.44151195450402     
   2.47314107979184        2.54716013587823        2.66614913119768     
   2.82833845800733        2.94259548892169        2.97537074604920     
   3.05126389649057        3.12312442750122        3.26273928125133     
   3.35552414556007        3.52167486624721        3.94765413745577     
   4.00820705103123        4.54230265757487        4.69852191918132     
   4.85911024323234        5.21541771381963        5.97065252182881     
   6.08037608682846        6.36370810018807        6.66598977849004     
   6.70768463407263        6.90661877854363        7.08241609867954     
   7.58478941274666        8.86168234470204        8.97131107629769     
   10.3392753343133        10.4416205312090        10.6157688848832     
   11.2551042721952        12.7275493498005        13.2270040902514     
   18.2948261680250        26.7579001288089        28.3551650702452     
   29.9890165562057        36.8846783104786        36.8903891507593     
   36.8937817344468        36.8976627951836        44.0420152671999     
   44.3544139053754        44.8143741226749        46.4717719802822     
   46.5299908016706        46.6161694136496        55.0720529607978     
   55.6538375487892        103.923255860977        138.751819280983     
   140.287924729967        150.664476389700       0.114247087546517     
  0.178207786539417       0.276789606975304       0.388038118503371     
  0.414859441860840       0.608996591545978       0.733607366470056     
  0.769716427855958       0.862958797387862       0.907498537832383     
  0.936565945041814        1.03143066357234        1.09441733720428     
   1.23741921067720        1.44229180412298        1.50684716346175     
   1.70803747544026        2.16907295167796        2.31080794205887     
   2.34318609096515        2.45274140983628        2.47366053575373     
   2.51599816083829        2.64619423508019        2.89374432535496     
   3.04751406479489        3.15304588146119        3.37623533850512     
   4.33162513434498        4.55344536837197        4.59547204324545     
   5.81736941312373        6.70558846014408        6.84820438711411     
   6.93924835490912        7.15755959696030        8.84378153685309     
   10.3395419611125        10.3770489432235        12.6697258702986     
   26.4566247563487        36.8845797667205        36.8851323141962     
   36.8937122945373        43.9438880585435        44.3129153130216     
   46.4719447931302        46.4961624277555        55.0088250282613     
   138.541137636063     
 @CHECKOUT-I, Total execution time (CPU/WALL):       34.15/      19.47 seconds.
--executable xvtran finished with status     0 in       19.52 seconds (walltime).
 --invoking executable--
/home/asmola/.local/bin/xintprc
 @GETMEM-I,  Allocated    3814 MB of main memory.
  Processing integrals for CCSD calculation.
  @GMOIAA-I, Processing MO integrals for spin case AA.
  @GMOIAA-I, Generation of integral list completed.
                      TYPE                NUMBER
                      ----               --------
                      PPPP              27524020
                      PPPH               9932000
                      PPHH                900748
                      PHPH                491140
                      PHHH                 89950
                      HHHH                  2356

                     TOTAL              38940214

  @FORMT2-I, Second-order MP correlation energies:
            ------------------------------------------------
            E(SCF)                  =   -534.722342104834 a.u.
            E2(AA)                  =     -0.105732895850 a.u.
            E2(AB)                  =     -0.621004192005 a.u.
            E2(TOT)                 =     -0.832469983706 a.u.
            Total MP2 energy        =   -535.554812088540 a.u.
            ------------------------------------------------
   Largest T2 amplitudes for spin case AB:
       _       _                 _       _                 _       _
   i   j   a   b             i   j   a   b             i   j   a   b
-----------------------------------------------------------------------------
[  9   9  17  17]-0.02754 [  9   9  17  15] 0.02273 [  9   9  15  17] 0.02273
[  9   9  15  15]-0.02009 [ 13  13 112 112]-0.01789 [ 13  13 113 113]-0.01590
[ 10  10  34  34]-0.01514 [ 13  13 116 116]-0.01445 [ 10  10  24  24]-0.01276
[ 13  13 117 117]-0.01252 [ 10  10  25  25]-0.01248 [ 13   9 112  17]-0.01248
[  9  13  17 112]-0.01248 [ 10  10 117 117]-0.01216 [  9   9  20  17] 0.01194
-----------------------------------------------------------------------------
   Norm of T2AB vector (  1799624 symmetry allowed elements):  0.3125504495.
-----------------------------------------------------------------------------
 @CHECKOUT-I, Total execution time (CPU/WALL):        6.48/      10.86 seconds.
--executable xintprc finished with status     0 in       10.99 seconds (walltime).
  calling xvcc 
 --invoking executable--
/home/asmola/.local/bin/xvcc
 @GETMEM-I,  Allocated    3814 MB of main memory.
   CCSD energy will be calculated.
   The total correlation energy is -0.832469983706 a.u.
   The total correlation energy is -0.838477439761 a.u.
  Convergence information after     1 iterations: 
  Largest element of residual vector : -0.11233937E-01.
  Largest element of DIIS residual   : -0.11233937E-01.
   The total correlation energy is -0.850021173327 a.u.
  Convergence information after     2 iterations: 
  Largest element of residual vector : -0.33538480E-02.
  Largest element of DIIS residual   : -0.32533756E-02.
   The total correlation energy is -0.850282918756 a.u.
  Convergence information after     3 iterations: 
  Largest element of residual vector : -0.18140997E-02.
  Largest element of DIIS residual   :  0.89444306E-03.
   The total correlation energy is -0.851356637873 a.u.
  Convergence information after     4 iterations: 
  Largest element of residual vector : -0.24899311E-03.
  Largest element of DIIS residual   :  0.20407761E-03.
   The total correlation energy is -0.851445220620 a.u.
  Convergence information after     5 iterations: 
  Largest element of residual vector :  0.16840919E-03.
  Largest element of DIIS residual   :  0.94925241E-04.
   The total correlation energy is -0.851443109645 a.u.
  Convergence information after     6 iterations: 
  Largest element of residual vector : -0.55375491E-04.
  Largest element of DIIS residual   : -0.45177584E-04.
   The total correlation energy is -0.851443092759 a.u.
  Convergence information after     7 iterations: 
  Largest element of residual vector :  0.27076440E-04.
  Largest element of DIIS residual   :  0.17189488E-04.
   The total correlation energy is -0.851442717309 a.u.
  Convergence information after     8 iterations: 
  Largest element of residual vector : -0.11207648E-04.
  Largest element of DIIS residual   : -0.75788320E-05.
   The total correlation energy is -0.851442592246 a.u.
  Convergence information after     9 iterations: 
  Largest element of residual vector :  0.61148685E-05.
  Largest element of DIIS residual   :  0.39879161E-05.
   The total correlation energy is -0.851443010037 a.u.
  Convergence information after    10 iterations: 
  Largest element of residual vector :  0.36349659E-05.
  Largest element of DIIS residual   :  0.27392510E-05.
   The total correlation energy is -0.851443112532 a.u.
  Convergence information after    11 iterations: 
  Largest element of residual vector :  0.17914351E-05.
  Largest element of DIIS residual   : -0.12221642E-05.
   The total correlation energy is -0.851443183902 a.u.
  Convergence information after    12 iterations: 
  Largest element of residual vector :  0.11198067E-05.
  Largest element of DIIS residual   :  0.61551328E-06.
   The total correlation energy is -0.851443205751 a.u.
  Convergence information after    13 iterations: 
  Largest element of residual vector : -0.35964640E-06.
  Largest element of DIIS residual   : -0.23368847E-06.
   The total correlation energy is -0.851443205398 a.u.
  Convergence information after    14 iterations: 
  Largest element of residual vector :  0.19132416E-06.
  Largest element of DIIS residual   :  0.10809622E-06.
   The total correlation energy is -0.851443203359 a.u.
  Convergence information after    15 iterations: 
  Largest element of residual vector : -0.76603996E-07.
  Largest element of DIIS residual   : -0.43470053E-07.
   The total correlation energy is -0.851443201866 a.u.
  Convergence information after    16 iterations: 
  Largest element of residual vector :  0.29490942E-07.
  Largest element of DIIS residual   : -0.16325489E-07.
   The total correlation energy is -0.851443201853 a.u.
  Convergence information after    17 iterations: 
  Largest element of residual vector :  0.16590681E-07.
  Largest element of DIIS residual   :  0.13413156E-07.
   The total correlation energy is -0.851443201790 a.u.
  Convergence information after    18 iterations: 
  Largest element of residual vector :  0.91037213E-08.
  Largest element of DIIS residual   : -0.83113073E-08.
   The total correlation energy is -0.851443201897 a.u.
  Convergence information after    19 iterations: 
  Largest element of residual vector :  0.64540744E-08.
  Largest element of DIIS residual   :  0.46611592E-08.
   The total correlation energy is -0.851443202030 a.u.
  Convergence information after    20 iterations: 
  Largest element of residual vector : -0.34534532E-08.
  Largest element of DIIS residual   : -0.27168726E-08.
   The total correlation energy is -0.851443202058 a.u.
  Convergence information after    21 iterations: 
  Largest element of residual vector :  0.20293830E-08.
  Largest element of DIIS residual   :  0.15851207E-08.
   The total correlation energy is -0.851443202061 a.u.
  Convergence information after    22 iterations: 
  Largest element of residual vector :  0.11795466E-08.
  Largest element of DIIS residual   :  0.67897173E-09.
   The total correlation energy is -0.851443202054 a.u.
  Convergence information after    23 iterations: 
  Largest element of residual vector :  0.49060658E-09.
  Largest element of DIIS residual   :  0.32485533E-09.
   The total correlation energy is -0.851443202047 a.u.
  Convergence information after    24 iterations: 
  Largest element of residual vector :  0.24962962E-09.
  Largest element of DIIS residual   :  0.16132720E-09.
   The total correlation energy is -0.851443202045 a.u.
  Convergence information after    25 iterations: 
  Largest element of residual vector : -0.11451037E-09.
  Largest element of DIIS residual   : -0.81939865E-10.
   The total correlation energy is -0.851443202045 a.u.
  Convergence information after    26 iterations: 
  Largest element of residual vector :  0.60813389E-10.
  Largest element of DIIS residual   :  0.40542913E-10.
  Amplitude equations converged in    26iterations.
   The total correlation energy is -0.851443202046 a.u.
   The CC iterations have converged.

   Largest T1 amplitudes for spin case AA:
   i       a                 i       a                 i       a    
-----------------------------------------------------------------------------
[ 12     112    ]-0.01358 [  9      38    ] 0.01177 [ 12     109    ]-0.00987
[  9      17    ]-0.00719 [  8      38    ]-0.00642 [ 12     116    ]-0.00616
[  9      27    ]-0.00612 [ 12     110    ]-0.00592 [  9      47    ]-0.00577
[  7      27    ]-0.00563 [  8      25    ] 0.00556 [  9      15    ] 0.00551
[ 10      25    ]-0.00506 [  8      24    ]-0.00498 [  8      23    ] 0.00492
-----------------------------------------------------------------------------
[...]
 term  0.518160237546992     
 final tnorm  0.855315975118122     
  norm contr. I: |<0|L dT/dx|0>|^2   0.000000000000000E+000
  norm contr. II: <0|[nabla(1+L)e-T][nabla e^T]|0>  0.518160237546992     
  total norm contribution  0.518160237546992     
 oo  2.306683514828661E-003
 vv  -1.74833255972335     
 vo -2.541970297366205E-002
  Correlated perturbed 1-el contribution to DBOC  -1.77144557918219       cm**-1
  SUM_I |dc_I/dx|^2 contribution to DBOC  0.892262762825325       cm**-1
 
 
  The total diagonal Born-Oppenheimer correction (DBOC) is:      0.0088286191 a.u.
  The total diagonal Born-Oppenheimer correction (DBOC) is:       1937.657915 cm-1
 
 Total CC energy including DBOC  -535.564956687813     
 First-order density matrix is being calculated  (Symmetry block 2, perturbation   3)
 Calculation of the contributions of <pq||rs> to dI(i,j)/dx required   4.2 seconds.
 Calculation of the contributions of <pq||rs> to dI(a,b)/dx required  10.5 seconds.
 Calculation of the contributions of <pq||rs> to dI(i,a)/dx required   6.6 seconds.
 First-order Z-vector equations are solved for 1 perturbation.
 Convergence reached after  23 iterations.
        U*G(pq,rs) contribution is being calculated
             (Symmetry block 2, perturbation   3)

 CCSD contribution to force constants 

        0.0000000000        0.0000000000        0.0000000000
        0.0000000000        0.0000000000        0.0000000000
        0.0000000000        0.0000000000        0.0000000000
        0.0000000000        0.0000000000        0.0000000000
        0.0000000000        0.0000000000        0.0000000000
        0.0000000000        0.0000000000        0.0000000000
        0.0000000000        0.0000000000        0.0000000000
        0.0000000000        0.0000000000        0.0000000000
        0.0000000000        0.0000000000        0.0000000000
        0.0000000000        0.0000000000        0.0000000000
        0.0000000000        0.0000000000        0.0000000000
        0.0000000000        0.0000000000        0.0000000000
        0.0000000000        0.0000000000        0.0000000000
        0.0000000000        0.0000000000        0.0000000000
        0.0000000000        0.0000000000        0.0000000000
        0.0000000000        0.0000000000        0.0000000000
        0.0000000000        0.0000000000        0.0000000000
        0.0000000000        0.0000000000        0.0000000000
        0.0000000000        0.0000000000        0.0000000000
        0.0000000000        0.0000000000        0.0000000000
        0.0000000000        0.0000000000        0.0000000000
        0.0000000000        0.0000000000        0.0000000000
        0.0000000000        0.0000000000        0.0000000000
        0.0000000000        0.0000000000        0.0000000000
        0.0000000000        0.0000000000        0.0000000000
        0.0000000000        0.0000000000        0.0000000000
        0.4305125232       -0.1970392479       -0.2334732753

 CCSD contribution to dipole derivatives 

        0.0000000000        0.0000000000        0.0000000000
        0.0000000000        0.0000000000        0.0000000000
        0.0000000000        0.0000000000        0.0000000000
        0.0000000000        0.0000000000        0.0000000000
        0.0000000000        0.0000000000        0.0000000000
        0.0000000000        0.0000000000        0.0000000000
        0.0000000000        0.0000000000        0.0000000000
        0.0000000000        0.0000000000        0.0000000000
        0.0000000000        0.0000000000        0.0116275467
 @CHECKOUT-I, Total execution time (CPU/WALL):      946.99/     259.48 seconds.
--executable xsdcc finished with status     0 in      259.65 seconds (walltime).
 --invoking executable--
/home/asmola/.local/bin/xanti
 @GETMEM-I,  Allocated    3814 MB of main memory.
 CCSD MO derivative gammas will be sorted to Mulliken order.
 @CHECKOUT-I, Total execution time (CPU/WALL):        6.35/       4.90 seconds.
--executable xanti finished with status     0 in        5.03 seconds (walltime).
 --invoking executable--
/home/asmola/.local/bin/xbcktrn
 @GETMEM-I,  Allocated    3814 MB of main memory.
 CCSD MO derivative gammas will be transformed to the AO basis.
 @CHECKOUT-I, Total execution time (CPU/WALL):       11.26/       2.56 seconds.
--executable xbcktrn finished with status     0 in        2.62 seconds (walltime).
 --invoking executable--
/home/asmola/.local/bin/xvdint
 @GETMEM-I,  Allocated    3814 MB of main memory.
 One- and two-electron integral derivatives are calculated
 for RHF-CC/MBPT hessians and dipole derivatives.
 Spherical gaussians are used.
  magnet F F
 Evaluation of 2el integral derivatives

                      Two-electron integral gradient
                      ------------------------------

                         O #1 x     0.0000000000
                         O #1 y     0.0000000000
                         H #2 x     0.0000000000
                         H #2 y     0.0000000000
                         CL#3 x     0.0000000000
                         CL#3 y     0.0000000000


 O #1       0.0000000000            0.0000000000           -0.0890417307
 H #2       0.0000000000            0.0000000000            0.0005690274
 CL#3       0.0000000000            0.0000000000            0.0884727033


 Evaluation of 2e integral derivatives required  112.44 seconds.
  contribution to Hessian
        0.0000000000        0.0000000000        0.0000000000
        0.0000000000        0.0000000000        0.0000000000
       -0.0890417307        0.0005690274        0.0884727033
 @CHECKOUT-I, Total execution time (CPU/WALL):      112.53/      20.01 seconds.
--executable xvdint finished with status     0 in       20.11 seconds (walltime).
 --invoking executable--
/home/asmola/.local/bin/xanti
 @GETMEM-I,  Allocated    3814 MB of main memory.
 CCSD MO gammas will be sorted to Mulliken order.
 @CHECKOUT-I, Total execution time (CPU/WALL):        9.47/      16.58 seconds.
--executable xanti finished with status     0 in       16.68 seconds (walltime).
 --invoking executable--
/home/asmola/.local/bin/xbcktrn
 @GETMEM-I,  Allocated    3814 MB of main memory.
 CCSD MO gammas will be transformed to the AO basis.
 @CHECKOUT-I, Total execution time (CPU/WALL):       18.12/       2.68 seconds.
--executable xbcktrn finished with status     0 in        2.76 seconds (walltime).
 --invoking executable--
/home/asmola/.local/bin/xvdint
 @GETMEM-I,  Allocated    3814 MB of main memory.
 One- and two-electron integral derivatives are calculated
 for RHF-CC/MBPT hessians and dipole derivatives.
 Spherical gaussians are used.
  magnet F F

                     Kinetic energy integral gradient
                     --------------------------------

                         O #1 x    -0.2495789856
                         O #1 y    -1.1544406853
                         H #2 x     0.5946164649
                         H #2 y     1.1809792382
                         CL#3 x    -0.3450374793
                         CL#3 y    -0.0265385529


 O #1      -0.2495789856           -1.1544406853            0.0000000000
 H #2       0.5946164649            1.1809792382            0.0000000000
 CL#3      -0.3450374793           -0.0265385529            0.0000000000



                   Nuclear attraction integral gradient
                   ------------------------------------

                         O #1 x   -22.0086707660
                         O #1 y     8.0095803810
                         H #2 x    -6.6607864440
                         H #2 y    -8.4152813228
                         CL#3 x    28.6694572100
                         CL#3 y     0.4057009418


 O #1     -22.0086707660            8.0095803810            0.0000000000
 H #2      -6.6607864440           -8.4152813228            0.0000000000
 CL#3      28.6694572100            0.4057009418            0.0000000000



                      Reorthonormalization gradient
                      -----------------------------

                         O #1 x     0.0000000000
                         O #1 y     0.0000000000
                         H #2 x     0.0000000000
                         H #2 y     0.0000000000
                         CL#3 x     0.0000000000
                         CL#3 y     0.0000000000


 O #1       0.0000000000            0.0000000000            0.0000000000
 H #2       0.0000000000            0.0000000000            0.0000000000
 CL#3       0.0000000000            0.0000000000            0.0000000000



                     Kinetic energy integral Hessian
                     -------------------------------


           Symmetry 1

           O #1 x      O #1 y      H #2 x      H #2 y      CL#3 x      CL#3 y

 O #1 x   -1.879131
 O #1 y    0.613788   -1.391545
 H #2 x    2.255493   -0.609456   -2.271037
 H #2 y   -0.609456    1.179851    0.627412   -1.177847
 CL#3 x   -0.376361   -0.004332    0.015545   -0.017956    0.360817
 CL#3 y   -0.004332    0.211694   -0.017956   -0.002004    0.022288   -0.209690


           Symmetry 2

           O #1 z      H #2 z      CL#3 z

 O #1 z   -3.042309
 H #2 z    2.838148   -2.844817
 CL#3 z    0.204160    0.006669   -0.210829




           O #1 x      O #1 y      O #1 z      H #2 x      H #2 y      H #2 z

 O #1 x   -1.879131
 O #1 y    0.613788   -1.391545
 O #1 z    0.000000    0.000000   -3.042309

 H #2 x    2.255493   -0.609456    0.000000   -2.271037
 H #2 y   -0.609456    1.179851    0.000000    0.627412   -1.177847
 H #2 z    0.000000    0.000000    2.838148    0.000000    0.000000   -2.844817

 CL#3 x   -0.376361   -0.004332    0.000000    0.015545   -0.017956    0.000000
 CL#3 y   -0.004332    0.211694    0.000000   -0.017956   -0.002004    0.000000
 CL#3 z    0.000000    0.000000    0.204160    0.000000    0.000000    0.006669


           CL#3 x      CL#3 y      CL#3 z

 CL#3 x    0.360817
 CL#3 y    0.022288   -0.209690
 CL#3 z    0.000000    0.000000   -0.210829




                   Nuclear attraction integral Hessian
                   -----------------------------------


           Symmetry 1

           O #1 x      O #1 y      H #2 x      H #2 y      CL#3 x      CL#3 y

 O #1 x    1.368511
 O #1 y   -3.793764   18.191433
 H #2 x  -15.883856    4.307681   15.219835
 H #2 y    4.722316   -7.790622   -5.410321    7.850517
 CL#3 x   14.515345   -0.513917    0.664021    0.688005  -15.179365
 CL#3 y   -0.928552  -10.400811    1.102640   -0.059895   -0.174088   10.460705


           Symmetry 2

           O #1 z      H #2 z      CL#3 z

 O #1 z   29.535093
 H #2 z  -19.739690   20.332146
 CL#3 z   -9.795403   -0.592456   10.387859




           O #1 x      O #1 y      O #1 z      H #2 x      H #2 y      H #2 z

 O #1 x    1.368511
 O #1 y   -3.793764   18.191433
 O #1 z    0.000000    0.000000   29.535093

 H #2 x  -15.883856    4.307681    0.000000   15.219835
 H #2 y    4.722316   -7.790622    0.000000   -5.410321    7.850517
 H #2 z    0.000000    0.000000  -19.739690    0.000000    0.000000   20.332146

 CL#3 x   14.515345   -0.513917    0.000000    0.664021    0.688005    0.000000
 CL#3 y   -0.928552  -10.400811    0.000000    1.102640   -0.059895    0.000000
 CL#3 z    0.000000    0.000000   -9.795403    0.000000    0.000000   -0.592456


           CL#3 x      CL#3 y      CL#3 z

 CL#3 x  -15.179365
 CL#3 y   -0.174088   10.460705
 CL#3 z    0.000000    0.000000   10.387859




                Highest order reorthonormalization Hessian
                ------------------------------------------


           Symmetry 1

           O #1 x      O #1 y      H #2 x      H #2 y      CL#3 x      CL#3 y

 O #1 x    0.000000
 O #1 y    0.000000    0.000000
 H #2 x    0.000000    0.000000    0.000000
 H #2 y    0.000000    0.000000    0.000000    0.000000
 CL#3 x    0.000000    0.000000    0.000000    0.000000    0.000000
 CL#3 y    0.000000    0.000000    0.000000    0.000000    0.000000    0.000000


           Symmetry 2

           O #1 z      H #2 z      CL#3 z

 O #1 z    0.000000
 H #2 z    0.000000    0.000000
 CL#3 z    0.000000    0.000000    0.000000




           O #1 x      O #1 y      O #1 z      H #2 x      H #2 y      H #2 z


           CL#3 x      CL#3 y      CL#3 z




                Electronic contributions to dipole moment
                -----------------------------------------

                               au             Debye

                    x      1.75787361      4.46806981
                    y      0.08212685      0.20874567

  Conversion factor used: 1 a.u. =   2.54174691 Debye 



   Electronic contributions to static part of dipole moment derivatives
   --------------------------------------------------------------------


                     Total dipole moment derivatives
                     -------------------------------


           Symmetry 1
                              Ex             Ey

               O #1 x    -8.44319825    -0.06711227
               O #1 y     0.08428657    -8.36656942
               H #2 x    -0.77123049     0.11132817
               H #2 y    -0.04027455    -0.78005477
               CL#3 x   -16.78557126    -0.04421590
               CL#3 y    -0.04401203   -16.85337581

           Symmetry 2
                              Ez

               O #1 z    -7.98794647
               H #2 z    -1.14837305
               CL#3 z   -16.86368048



                       Ex          Ey          Ez

      O #1    x   -8.443198   -0.067112    0.000000
      O #1    y    0.084287   -8.366569    0.000000
      O #1    z    0.000000    0.000000   -7.987946

      H #2    x   -0.771230    0.111328    0.000000
      H #2    y   -0.040275   -0.780055    0.000000
      H #2    z    0.000000    0.000000   -1.148373

      CL#3    x  -16.785571   -0.044216    0.000000
      CL#3    y   -0.044012  -16.853376    0.000000
      CL#3    z    0.000000    0.000000  -16.863680

 Evaluation of 1e integral derivatives required    1.64 seconds.
 Evaluation of 2el integral derivatives

                      Two-electron integral gradient
                      ------------------------------

                         O #1 x    10.1428593500
                         O #1 y    -2.2985641252
                         H #2 x     3.4071068785
                         H #2 y     2.6573189806
                         CL#3 x   -13.5499662285
                         CL#3 y    -0.3587548554


 O #1      10.1428593500           -2.2985641252            0.0000000000
 H #2       3.4071068785            2.6573189806            0.0000000000
 CL#3     -13.5499662285           -0.3587548554            0.0000000000


 Evaluation of 2e integral derivatives required  311.29 seconds.

                            Molecular gradient
                            ------------------

                         O #1 x    -0.3529075795
                         O #1 y    -0.8145720825
                         H #2 x     0.1889832749
                         H #2 y     0.8080310839
                         CL#3 x     0.1639243046
                         CL#3 y     0.0065409987


 O #1      -0.3529075795           -0.8145720825            0.0000000000
 H #2       0.1889832749            0.8080310839            0.0000000000
 CL#3       0.1639243046            0.0065409987            0.0000000000


  Molecular gradient norm 0.123E+01

                            Molecular hessian
                            -----------------


           Symmetry 1

           O #1 x      O #1 y      H #2 x      H #2 y      CL#3 x      CL#3 y

 O #1 x    5.917517
 O #1 y    3.200539    2.945126
 H #2 x   -4.471256   -7.255009    4.435387
 H #2 y   -3.099195   -2.905697    3.480685    2.285071
 CL#3 x   -1.446261   -0.133628   -1.041971   -0.091031    2.488232
 CL#3 y   -0.101344   -0.039429   -0.440823   -0.425866    0.542167    0.465295


           Symmetry 2

           O #1 z      H #2 z      CL#3 z

 O #1 z  -13.106005
 H #2 z   12.864227  -13.310056
 CL#3 z    0.241778   -0.193161   -0.048617




           O #1 x      O #1 y      O #1 z      H #2 x      H #2 y      H #2 z

 O #1 x    5.917517
 O #1 y    3.200539    2.945126
 O #1 z    0.000000    0.000000  -13.106005

 H #2 x   -4.471256   -7.255009    0.000000    4.435387
 H #2 y   -3.099195   -2.905697    0.000000    3.480685    2.285071
 H #2 z    0.000000    0.000000   12.864227    0.000000    0.000000  -13.310056

 CL#3 x   -1.446261   -0.133628    0.000000   -1.041971   -0.091031    0.000000
 CL#3 y   -0.101344   -0.039429    0.000000   -0.440823   -0.425866    0.000000
 CL#3 z    0.000000    0.000000    0.241778    0.000000    0.000000   -0.193161


           CL#3 x      CL#3 y      CL#3 z

 CL#3 x    2.488232
 CL#3 y    0.542167    0.465295
 CL#3 z    0.000000    0.000000   -0.048617




                           Total dipole moment
                           -------------------

                               au             Debye

                    x     -0.00548482     -0.01394103
                    y     -0.45566014     -1.15817275

  Conversion factor used: 1 a.u. =   2.54174691 Debye 



                     Total dipole moment derivatives
                     -------------------------------


           Symmetry 1
                              Ex             Ey

               O #1 x    -0.52826893    -0.01374404
               O #1 y    -0.30197203    -0.20672293
               H #2 x     0.22834010     0.03006123
               H #2 y     0.22224241     0.19621916
               CL#3 x     0.29992896    -0.01631723
               CL#3 y     0.07972977     0.01050373

           Symmetry 2
                              Ez

               O #1 z    -0.43090565
               H #2 z     0.38653716
               CL#3 z     0.04436841



                       Ex          Ey          Ez

      O #1    x   -0.528269   -0.013744    0.000000
      O #1    y   -0.301972   -0.206723    0.000000
      O #1    z    0.000000    0.000000   -0.430906

      H #2    x    0.228340    0.030061    0.000000
      H #2    y    0.222242    0.196219    0.000000
      H #2    z    0.000000    0.000000    0.386537

      CL#3    x    0.299929   -0.016317    0.000000
      CL#3    y    0.079730    0.010504    0.000000
      CL#3    z    0.000000    0.000000    0.044368

  Molecular gradient does not satisfy rotational invariance condition.
   rotational invariance in yz-plane :        0.0000E+00
   rotational invariance in xz-plane :        0.0000E+00
   rotational invariance in xy-plane :        0.5997E-01
 @CHECKOUT-I, Total execution time (CPU/WALL):      313.00/      44.38 seconds.
--executable xvdint finished with status     0 in       44.48 seconds (walltime).
 --invoking executable--
/home/asmola/.local/bin/xjoda
  @GTFLGS-I, Hessian will be transformed to curvilinear coordinates.
  @GTFLGS-I, Hessian will be transformed to curvilinear coordinates.
  igrd and ihes are                      0                     1
  gradient from JOBARC 
  -0.352907579505129  -0.814572082545136   0.000000000000000
   0.188983274920876   0.808031083875013   0.000000000000000
   0.163924304584228   0.006540998670122   0.000000000000000
 
  @PROJFCM-I, Projecting force constant matrix onto totally symmetric subspace.
  Largest difference between matrix elements of symmetrized
  and unsymmetrized FCM :     0.0000000000E+00.
 
  Summary of diagonal Born-Oppenheimer correction at the correlated level
  The total diagonal Born-Oppenheimer correction (DBOC) is:      0.0088286191 a.u.
  The total diagonal Born-Oppenheimer correction (DBOC) is:       1937.657915 cm-1
  The total diagonal Born-Oppenheimer correction (DBOC) is:            23.180 kJ/mole
  hellooooooo 
  readis is  F
 
 @CHECKOUT-I, Total execution time (CPU/WALL):        0.01/       0.04 seconds.
--executable xjoda finished with status     0 in        0.08 seconds (walltime).
  The final electronic energy is      -535.564956687812810 a.u. 
  This computation required                         2926.48 seconds (walltime).
