 --invoking executable--
/home/asmola/.local/bin/xjoda


   *************************************************************************
         <<<     CCCCCC     CCCCCC   |||     CCCCCC     CCCCCC   >>>
       <<<      CCC        CCC       |||    CCC        CCC         >>>
      <<<      CCC        CCC        |||   CCC        CCC            >>>
    <<<        CCC        CCC        |||   CCC        CCC              >>>
      <<<      CCC        CCC        |||   CCC        CCC            >>>
       <<<      CCC        CCC       |||    CCC        CCC         >>>
         <<<     CCCCCC     CCCCCC   |||     CCCCCC     CCCCCC   >>>
   *************************************************************************

     ****************************************************************
     * CFOUR Coupled-Cluster techniques for Computational Chemistry *
     ****************************************************************
 

   Department of Chemistry                Institut fuer Physikalische Chemie
   University of Florida                  Universitaet Mainz
   Gainesville, FL 32611, USA             D-55099 Mainz, Germany

   Department of Chemistry                Fakultaet fuer Chemie und Biowiss.
   Johns Hopkins University               Karlsruher Institut fuer Technologie
   Baltimore, MD 21218, USA               D-76131 Karlsruhe, Germany

   Department of Chemistry                Department of Physical Chemistry
   Southern Methodist University          Eotvos Lorand University
   Dallas, TX 75275, USA                  H-1053 Budapest, Hungary

 
                       Version 2.1
 
                     vincent.theory.phys.ucl.ac.uk                     
                     Thu 30 Jan 15:05:52 GMT 2025                      
                     integer*8 version is running
 
********************************************************************************
*                          Input from ZMAT file                                *
********************************************************************************
Hypochlorous acid DBOC calculation                                              
O                                                                               
H 1 ROH                                                                         
CL 1 ROCL 2 A                                                                   
                                                                                
ROH=1.5000000000000007                                                          
ROCL=1.683                                                                      
A=107.0                                                                         
                                                                                
                                                                                
*CFOUR(CALC=CCSD,BASIS=AUG-PCVTZ,SCF_CONV=10                                    
CC_CONV=10,DBOC=ON,MEMORY=500000000)                                            
********************************************************************************
  @GTFLGS-I, Hessian will be transformed to curvilinear coordinates.
    -------------------------------------------------------------------
                    CFOUR Control Parameters 
    -------------------------------------------------------------------
        External           Internal           Value            Units
          Name               Name
    -------------------------------------------------------------------
       ABCDTYPE             IABCDT         STANDARD    [  0]    ***   
       ANHARMONIC           IANHAR         OFF         [  0]    ***   
       ANH_ALGORIT          IANALG         STANDARD    [  0]    ***   
       ANH_DERIVAT          IANDER         SECOND      [  1]    ***   
       ANH_MODE             ANHMOD         VIBRATION   [  0]    ***   
       ANH_STEPSIZ          ICUBST             50000          x 10-6  
       ANH_SYMMETR          IANHSM         ABELIAN     [  0]    ***   
       AO_LADDERS           IAOLAD         SINGLEPASS  [  1]    ***   
       AV_SCF               IAVSCF         OFF         [  0]    ***   
       BASIS                IBASIS         AUG-PCVTZ   [ 51]    ***   
       BOTHVECTORS          BOTHVC         OFF         [  0]    ***   
       BOX_POTENT           IPIAB          OFF         [  0]    ***   
       BREIT                IBREIT         OFF         [  0]    ***   
       BRUCK_CONV           IBRTOL          10D-  4             ***   
       BRUECKNER            IBRKNR         OFF         [  0]    ***   
       BUFFERSIZE           IBUFFS              4096            ***   
       CACHE_RECS           ICHREC             10               ***   
       CALCLEVEL            ICLLVL         CCSD        [ 10]    ***   
       CCORBOPT             ICCORB         OFF         [  0]  x 0.01  
       CC_CONV              ICCCNV          10D- 10             ***   
       CC_EXPORDER          ICCEOR              5               ***   
       CC_EXTRAPOL          ICCEXT         DIIS        [  1]    ***   
       CC_GUESS             ICCGES         MP2         [  0]    ***   
       CC_MAXCYC            ICCCYC            100              cycles 
       CC_PROGRAM           ICCPRO         VCC         [  0]    ***   
       CHARGE               ICHRGE              0               ***   
       CHOLESKY             ICHOLE         OFF         [  0]    ***   
       CIS_CONV             ICISTL              5               ***   
       COMM_SIZE            IPSIZE            ***               ***   
       CONSTANT             ICONST         OLD         [  1]    ***   
       CONTINUUM            ICONTU         NONE        [  0]    ***   
       CONTRACTION          ICNTYP         GENERAL     [  1]    ***   
       COORDINATES          ICOORD         INTERNAL    [  0]    ***   
       CPHF_CONVER          ICPHFT          10D- 16             ***   
       CPHF_MAXCYC          ICPHFC             64              cycles 
       CUBIC                ICUBIC         OFF         [  0]    ***   
       CURVILINEAR          ICURVY         ON          [  1]    ***   
       DBOC                 IDBOC          ON          [  1]    ***   
       DCT                  IDCT           OFF         [  0]    ***   
       DERIV_LEV            IDRLVL         SECOND      [  2]    ***   
       DEVMEM_SIZE          IDVMEM          50000000           MByte  
       DIAG_MRCC            IEOMST          10D-  0             ***   
       DIFF_TYPE            IDIFTY         RELAXED     [  0]    ***   
       DIRECT               IDIRCT         OFF         [  0]    ***   
       DROPMO               IDRPMO      NONE         
       ECP                  IECP           OFF         [  0]    ***   
       EIGENVECTOR          IVEC                1               ***   
       EL_ANHARM            IELANH         OFF         [  0]    ***   
       EOMFOLLOW            IEOMSR         ENERGY      [  0]    ***   
       EOMIP                IEOMIP         OFF         [  0]    ***   
       EOMLEVEL             HBARFM         SAME        [  0]    ***   
       EOM_MRCC             IMRCCE         NEW         [  1]    ***   
       EOM_NONIT            EOMNON         OFF         [  0]    ***   
       EOM_NSING            IEOMSI          10D-  0             ***   
       EOM_NSTATES          IMRCCD         DAVIDSON    [  0]    ***   
       EOM_NTRIP            IEOMTR          10D-  0             ***   
       EOM_ORDER            IEXORD         ENERGY      [  0]    ***   
       EOM_PROPSTA          IEOMST              0               ***   
       ESTATE_CONV          IEXTOL          10D-  5             ***   
       ESTATE_DIAG          IEXDIG         ITERATIVE   [  0]    ***   
       ESTATE_LOCK          IESLOC         ON          [  1]    ***   
       ESTATE_MAXC          IEXMXC             40               ***   
       ESTATE_PROP          IEXPRP         OFF         [  0]    ***   
       EVAL_HESS            IRECAL              0            # of cyc.
       EXCITATION           IEXCIT              0               ***   
       EXCITE               IEXCIT         NONE        [  0]    ***   
       EXTERN_POT           IEXPOT         OFF         [  0]    ***   
       FCGRADNEW            IFCGNW         OFF         [  0]    ***   
       FC_FIELD             IFINFC              0             x 10-6  
       FD_CALTYPE           IFDCAL         GRADONLY    [  0]    ***   
       FD_PROJECT           IFDPRJ         OFF         [  1]    ***   
       FD_STEPSIZE          IDISFD              0            10-4 bohr
       FD_USEGROUP          IFDGRP         FULL        [  0]    ***   
       FILE_RECSIZ          IFLREC              4096           words  
       FINITE_PERT          IFIPER              0             x 10-6  
       FIXGEOM              IFIXGM         OFF         [  0]    ***   
       FOCK                 IFOCK          AO          [  1]    ***   
       FREQ_ALGORI          IVIALG         STANDARD    [  0]    ***   
       FROZEN_CORE          IFROCO         OFF         [  0]    ***   
       GAMMA_ABCD           IGABCD         STORE       [  0]    ***   
       GAMMA_ABCI           IGABCI         STORE       [  0]    ***   
       GENBAS_1             IGNBS1              0               ***   
       GENBAS_2             IGNBS2              0               ***   
       GENBAS_3             IGNBS3              0               ***   
       GENBAS_4             IGNBS4              0               ***   
       GEO_CONV             ICONTL              5              H/bohr 
       GEO_MAXCYC           IOPTCY             50               ***   
       GEO_MAXSTEP          IMXSTP            300            millibohr
       GEO_METHOD           INR            SINGLE_POINT[  5]    ***   
       GIAO                 IGIAO          OFF         [  1]    ***   
       GIMIC                IGIMIC         OFF         [  0]    ***   
       GRID                 IGRID          OFF         [  0]    ***   
       GRID_ALGO            IGALGO         SERIAL      [  0]    ***   
       GUESS                IGUESS         MOREAD      [  0]    ***   
       HBAR                 IHBAR          OFF         [  0]    ***   
       HESS_TYPE            IHESTP         SCF         [  0]    ***   
       HF2_FILE             IHF2Fl         USE         [  1]    ***   
       HFSTABILITY          ISTABL         OFF         [  0]    ***   
       INCORE               INCORE         OFF         [  0]    ***   
       INPUT_MRCC           IMRCC          ON          [  1]    ***   
       INTEGRALS            INTTYP         VMOL        [  1]    ***   
       JODA_PRINT           IJPRNT              0               ***   
       KEYWORD_OUT          IDMPKW         NO          [  0]    ***   
       LINDEP_TOL           ILINDP              8               ***   
       LINEQ_CONV           IZTACN          10D-  7           cycles  
       LINEQ_EXPOR          ILMAXD              5               ***   
       LINEQ_MAXCY          ILMAXC            100               ***   
       LINEQ_TYPE           ILTYPE         DIIS        [  1]    ***   
       LOCK_ORBOCC          ILOCOC         OFF         [  0]    ***   
       MEMORY_SIZE          IMEMSZ         500000000           words  
       MEM_UNIT             IMEMU          INTEGERWORDS[  0]    ***   
       MRCC                 IMRCCC         OFF         [  0]    ***   
       MULTIPLICTY          IMULTP              1               ***   
       NACOUPLING           IVCOUP         OFF         [  0]    ***   
       NEGEVAL              IDIE           ABORT       [  0]    ***   
       NEWNORM              INEWNO         OFF         [  0]    ***   
       NON-HF               INONHF         OFF         [  0]    ***   
       NTOP_TAMP            ITOPT2             15               ***   
       NUC_MODEL            INUCMO         POINT       [  0]    ***   
       OCCUPATION           IOCCU   ESTIMATED BY SCF 
       OPEN-SHELL           IOPEN          SPIN-ORBITAL[  0]    ***   
       OPTVIB               IOPTVB         OFF         [  0]    ***   
       ORBITALS             IORBTP         STANDARD    [  0]    ***   
       PARALLEL             IPARAL         ON          [  1]    ***   
       PARA_INT             IPINTS         ON          [  1]    ***   
       PARA_PRINT           IPPRIN              0               ***   
       PERT_ORB             IPTORB         STANDARD    [  0]    ***   
       POINTS               IGRDFD              0               ***   
       PRINT                IPRNT               0               ***   
       PROPS                IPROPS         OFF         [  0]    ***   
       PROP_INTEGR          IINTYP         INTERNAL    [  0]    ***   
       PSI                  IPSI           OFF         [  0]    ***   
       QC_ALG               IQCALG         FLM         [  0]    ***   
       QC_LINALG            IQCLIN         TRIDIAG     [  2]    ***   
       QC_MAXCYC            IQCMAX          10D-100           cycles  
       QC_MAXSCFCY          IQCMSC          10D- 15           cycles  
       QC_RTRUST            IQCRTR          10D-  0           x 10-3  
       QC_SKIPSCF           IQCSKI         OFF         [  0]    ***   
       QC_START             IQCSTA          10D-  1             ***   
       QRHFGUESS            IQGUES         OFF         [  0]    ***   
       QUARTIC              IQUART         OFF         [  0]    ***   
       RAMAN_INT            IRAMIN         OFF         [  0]    ***   
       RAMAN_ORB            IRAMRE         UNRELAXED   [  0]    ***   
       RDO                  IRDOFM         ON          [  1]    ***   
       REDUCE_REPR          REDREP         Ir          [  0]    ***   
       REFERENCE            IREFNC         RHF         [  0]    ***   
       RELATIVIST           IRELAT         OFF         [  0]    ***   
       RELAX_DENS           IRDENS         ON          [  1]    ***   
       RESET_FLAGS          IRESET         OFF         [  0]    ***   
       RESTART_CC           ICCRES         OFF         [  0]    ***   
       ROT_EVEC             ROTVEC              0               ***   
       SAVE_INTS            ISVINT         OFF         [  0]    ***   
       SCALE_ON             ISTCRT              0               ***   
       SCF_CONV             ISCFCV          10D- 10             ***   
       SCF_DAMPING          IDAMP               0             x 10-3  
       SCF_EXPORDE          IRPPOR              6               ***   
       SCF_EXPSTAR          IRPPLS              8               ***   
       SCF_EXTRAPO          IRPP           ON          [  1]    ***   
       SCF_MAXCYC           ISCFCY            150              cycles 
       SCF_NOSTOP           ISCFST         OFF         [  0]    ***   
       SCF_PRINT            ISCFPR              0               ***   
       SCF_PROG             ISCFPR         SCF         [  0]    ***   
       SD_FIELD             IFINSD              0             x 10-6  
       SOPERT               IPERSO         OFF         [  0]    ***   
       SPHERICAL            IDFGHI         ON          [  1]    ***   
       SPINORBIT            ISOCAL         OFF         [  0]    ***   
       SPINROTATIO          ISRCON         OFF         [  0]    ***   
       SPIN_FLIP            ISPFLP         OFF         [  0]    ***   
       SPIN_ORBIT           ISPORB         OFF         [  0]    ***   
       SPIN_SCAL            ISCSMP         OFF         [  0]    ***   
       STEEPSCALE           ISTPSC              1000          x 10-3  
       SUBGROUP             ISUBGP         DEFAULT     [  0]    ***   
       SUBGRPAXIS           ISBXYZ         X           [  0]    ***   
       SYMMETRY             ISYM           ON          [  0]    ***   
       SYM_CHECK            ISYMCK         OVERRIDE    [  1]    ***   
       T3_EXTRAPOL          IT3EXT         OFF         [  0]    ***   
       T4_EXTRAPOL          IT4EXP         OFF         [  0]    ***   
       TAMP_SUM             IEVERY              5               ***   
       TESTSUITE            ITESTS         OFF         [  0]    ***   
       THERMOCH             ITHERM         OFF         [  0]    ***   
       TOL_CHOLESK          ITOLCH          10D-  4             ***   
       TRANGRAD             IRESRM         OFF         [  0]    ***   
       TRANS_INV            ITRAIN         IGNORE      [  1]    ***   
       TREAT_PERT           ITREAT         SIMULTANEOUS[  0]    ***   
       TRIP_ALGORI          ITRALG         NORMAL      [  0]    ***   
       UIJ_THRESHO          IUIJTH              1               ***   
       UNITS                IUNITS         ANGSTROM    [  0]    ***   
       UNOS                 IUNOS          OFF         [  0]    ***   
       UPDATE_HESS          IHUPDT         ON          [  1]    ***   
       VIBPHASE             ISETPH         STANDARD    [  0]    ***   
       VIBRATION            IVIB           ANALYTIC    [  1]    ***   
       VIB_ALGORIT          IGEALG         STANDARD    [  0]    ***   
       VNATORB              IVNORB         OFF         [  0]    ***   
       VTRAN                IVTRAN         FULL/PARTIAL[  0]    ***   
       XFIELD               IXEFLD              0             x 10-6  
       XFORM_TOL            IXFTOL          10D- 11             ***   
       YFIELD               IYEFLD              0             x 10-6  
       ZFIELD               IZEFLD              0             x 10-6  
       ZSCALE_EXP           IZEXPS         OFF         [  0]    ***   
    -------------------------------------------------------------------
   3 entries found in Z-matrix 
   Job Title : Hypochlorous acid DBOC calculation                                              
   There are  3 unique internal coordinates.
   Of these,  0 will be optimized.
   User supplied Z-matrix: 
--------------------------------------------------------------------------------
       SYMBOL    BOND      LENGTH    ANGLE     ANGLE     DIHED     ANGLE
                  TO      (ANGST)    WRT      (DEG)      WRT      (DEG)
--------------------------------------------------------------------------------
        O    
        H          1         ROH  
        CL         1         ROCL       2        A    
                  *Initial values for internal coordinates* 
                      Name             Value
                        ROH             1.5000000000
                        ROCL            1.6830000000
                        A             107.0000000000
--------------------------------------------------------------------------------
   Rotational constants (in cm-1): 
          0.4731443610             0.4993933025             9.0017010599
   Rotational constants (in MHz): 
      14184.5130841400         14971.4366652402        269864.2464997281
********************************************************************************
   The full molecular point group is C s .
   The largest Abelian subgroup of the full molecular point group is C s .
   The computational point group is C s .
********************************************************************************
--------------------------------------------------------------------------------
   Analysis of internal coordinates specified by Z-matrix 
--------------------------------------------------------------------------------
   *The nuclear repulsion energy is   49.096770915135217 a.u.
   *There are   3 degrees of freedom within the tot. symm. molecular subspace.
   *Z-matrix requests optimization of   0 coordinates.
   *The optimization is constrained.
   *The following   3 parameters can have non-zero 
    derivatives within the totally symmetric subspace:
             A    [ 3]  ROH  [ 1]  ROCL [ 2]
   *The following   0 parameters are to be optimized:

   *The following coordinates must be varied in an  unconstrained optimization.
             A    [ 3]  ROH  [ 1]  ROCL [ 2]
--------------------------------------------------------------------------------


 ----------------------------------------------------------------
         Coordinates used in calculation (QCOMP) 
 ----------------------------------------------------------------
 Z-matrix   Atomic            Coordinates (in bohr)
  Symbol    Number           X              Y              Z
 ----------------------------------------------------------------
     O         8        -2.11475612     0.20328012     0.00000000
     H         1        -3.13394683    -2.44174342     0.00000000
     CL       17         1.05762159    -0.02260864     0.00000000
 ----------------------------------------------------------------
 
   Interatomic distance matrix (Angstroms) 
 
                 O             H             CL   
                [ 1]        [ 2]        [ 3]
  O    [ 1]     0.00000
  H    [ 2]     1.50000     0.00000
  CL   [ 3]     1.68300     2.56099     0.00000
 rotcon2
   Rotational constants (in cm-1): 
          9.0017010599             0.4993933025             0.4731443610
   Rotational constants (in MHz): 
     269864.2464997278         14971.4366652402         14184.5130841400
  ECPDATA file not present.   Using default ECPDATA. 
  @GTFLGS-I, Hessian will be transformed to curvilinear coordinates.
  There are  157 basis functions.
 @CHECKOUT-I, Total execution time (CPU/WALL):        0.18/       0.25 seconds.
--executable xjoda finished with status     0 in        0.29 seconds (walltime).
 --invoking executable--
/home/asmola/.local/bin/xvmol
 SERIAL VERSION OF MOLECULE STARTED
********************************************************************************
                    INPUT FROM MOL FILE
********************************************************************************
INTGRL        1    0    1    0    0    0    0    0    0                         
         *** CFOUR Program System (Release V0.1) ***                            
Hypochlorous acid DBOC calculation                                              
    3    1 Z          0.10E-08              0    0                              
   9999.00      3.00                                                            
          8.00000000    1    4    1    1    1    1                              
O #1  -2.114756120246216   0.203280121315628   0.000000000000000                
   13    7                                                                      
   15330.0000000000       5.080000000000000E-004 -1.150000000000000E-004        
  0.000000000000000E+000  0.000000000000000E+000  0.000000000000000E+000        
  0.000000000000000E+000  0.000000000000000E+000                                
   2299.00000000000       3.929000000000000E-003 -8.950000000000000E-004        
  0.000000000000000E+000  0.000000000000000E+000  0.000000000000000E+000        
  0.000000000000000E+000  0.000000000000000E+000                                
   522.400000000000       2.024300000000000E-002 -4.636000000000000E-003        
  0.000000000000000E+000  0.000000000000000E+000  0.000000000000000E+000        
  0.000000000000000E+000  0.000000000000000E+000                                
   147.300000000000       7.918100000000000E-002 -1.872400000000000E-002        
  0.000000000000000E+000  0.000000000000000E+000  0.000000000000000E+000        
  0.000000000000000E+000  0.000000000000000E+000                                
   47.5500000000000       0.230687000000000      -5.846300000000000E-002        
  0.000000000000000E+000  0.000000000000000E+000  0.000000000000000E+000        
  0.000000000000000E+000  0.000000000000000E+000                                
   16.7600000000000       0.433118000000000      -0.136463000000000             
  0.000000000000000E+000  0.000000000000000E+000  0.000000000000000E+000        
  0.000000000000000E+000  0.000000000000000E+000                                
   6.20700000000000       0.350260000000000      -0.175740000000000             
  0.000000000000000E+000  0.000000000000000E+000  0.000000000000000E+000        
  0.000000000000000E+000  0.000000000000000E+000                                
   1.75200000000000       4.272800000000000E-002  0.160934000000000             
   1.00000000000000       0.000000000000000E+000  0.000000000000000E+000        
  0.000000000000000E+000  0.000000000000000E+000                                
  0.688200000000000      -8.154000000000000E-003  0.603418000000000             
  0.000000000000000E+000  0.000000000000000E+000  0.000000000000000E+000        
  0.000000000000000E+000  0.000000000000000E+000                                
  0.238400000000000       2.381000000000000E-003  0.378765000000000             
  0.000000000000000E+000   1.00000000000000       0.000000000000000E+000        
  0.000000000000000E+000  0.000000000000000E+000                                
   7.84500000000000       0.000000000000000E+000  0.000000000000000E+000        
  0.000000000000000E+000  0.000000000000000E+000   1.00000000000000             
  0.000000000000000E+000  0.000000000000000E+000                                
   21.0320000000000       0.000000000000000E+000  0.000000000000000E+000        
  0.000000000000000E+000  0.000000000000000E+000  0.000000000000000E+000        
   1.00000000000000       0.000000000000000E+000                                
  7.376000000000001E-002  0.000000000000000E+000  0.000000000000000E+000        
  0.000000000000000E+000  0.000000000000000E+000  0.000000000000000E+000        
  0.000000000000000E+000   1.00000000000000                                     
    8    6                                                                      
   34.4600000000000       1.592800000000000E-002  0.000000000000000E+000        
  0.000000000000000E+000  0.000000000000000E+000  0.000000000000000E+000        
  0.000000000000000E+000                                                        
   7.74900000000000       9.974000000000000E-002  0.000000000000000E+000        
  0.000000000000000E+000  0.000000000000000E+000  0.000000000000000E+000        
  0.000000000000000E+000                                                        
   2.28000000000000       0.310492000000000       0.000000000000000E+000        
  0.000000000000000E+000  0.000000000000000E+000  0.000000000000000E+000        
  0.000000000000000E+000                                                        
  0.715600000000000       0.491026000000000        1.00000000000000             
  0.000000000000000E+000  0.000000000000000E+000  0.000000000000000E+000        
  0.000000000000000E+000                                                        
  0.214000000000000       0.336337000000000       0.000000000000000E+000        
   1.00000000000000       0.000000000000000E+000  0.000000000000000E+000        
  0.000000000000000E+000                                                        
   15.1590000000000       0.000000000000000E+000  0.000000000000000E+000        
  0.000000000000000E+000   1.00000000000000       0.000000000000000E+000        
  0.000000000000000E+000                                                        
   57.4370000000000       0.000000000000000E+000  0.000000000000000E+000        
  0.000000000000000E+000  0.000000000000000E+000   1.00000000000000             
  0.000000000000000E+000                                                        
  5.974000000000000E-002  0.000000000000000E+000  0.000000000000000E+000        
  0.000000000000000E+000  0.000000000000000E+000  0.000000000000000E+000        
   1.00000000000000                                                             
    4    4                                                                      
   2.31400000000000        1.00000000000000       0.000000000000000E+000        
  0.000000000000000E+000  0.000000000000000E+000                                
  0.645000000000000       0.000000000000000E+000   1.00000000000000             
  0.000000000000000E+000  0.000000000000000E+000                                
   15.8580000000000       0.000000000000000E+000  0.000000000000000E+000        
   1.00000000000000       0.000000000000000E+000                                
  0.214000000000000       0.000000000000000E+000  0.000000000000000E+000        
  0.000000000000000E+000   1.00000000000000                                     
    2    2                                                                      
   1.42800000000000        1.00000000000000       0.000000000000000E+000        
  0.500000000000000       0.000000000000000E+000   1.00000000000000             
          1.00000000    1    3    1    1    1                                   
H #2  -3.133946826111573  -2.441743419531546   0.000000000000000                
    6    4                                                                      
   33.8700000000000       6.068000000000000E-003  0.000000000000000E+000        
  0.000000000000000E+000  0.000000000000000E+000                                
   5.09500000000000       4.530800000000000E-002  0.000000000000000E+000        
  0.000000000000000E+000  0.000000000000000E+000                                
   1.15900000000000       0.202822000000000       0.000000000000000E+000        
  0.000000000000000E+000  0.000000000000000E+000                                
  0.325800000000000       0.503903000000000        1.00000000000000             
  0.000000000000000E+000  0.000000000000000E+000                                
  0.102700000000000       0.383421000000000       0.000000000000000E+000        
   1.00000000000000       0.000000000000000E+000                                
  2.526000000000000E-002  0.000000000000000E+000  0.000000000000000E+000        
  0.000000000000000E+000   1.00000000000000                                     
    3    3                                                                      
   1.40700000000000        1.00000000000000       0.000000000000000E+000        
  0.000000000000000E+000                                                        
  0.388000000000000       0.000000000000000E+000   1.00000000000000             
  0.000000000000000E+000                                                        
  0.102000000000000       0.000000000000000E+000  0.000000000000000E+000        
   1.00000000000000                                                             
    2    2                                                                      
   1.05700000000000        1.00000000000000       0.000000000000000E+000        
  0.247000000000000       0.000000000000000E+000   1.00000000000000             
         17.00000000    1    4    1    1    1    1                              
CL#3   1.057621591746194  -0.022608635332618   0.000000000000000                
   18    8                                                                      
   456100.000000000       4.930000000000000E-005 -1.380000000000000E-005        
  4.200000000000000E-006  0.000000000000000E+000  0.000000000000000E+000        
  0.000000000000000E+000  0.000000000000000E+000  0.000000000000000E+000        
   68330.0000000000       3.830000000000000E-004 -1.073000000000000E-004        
  3.240000000000000E-005  0.000000000000000E+000  0.000000000000000E+000        
  0.000000000000000E+000  0.000000000000000E+000  0.000000000000000E+000        
   15550.0000000000       2.008500000000000E-003 -5.651000000000000E-004        
  1.711000000000000E-004  0.000000000000000E+000  0.000000000000000E+000        
  0.000000000000000E+000  0.000000000000000E+000  0.000000000000000E+000        
   4405.00000000000       8.385600000000000E-003 -2.361400000000000E-003        
  7.142000000000000E-004  0.000000000000000E+000  0.000000000000000E+000        
  0.000000000000000E+000  0.000000000000000E+000  0.000000000000000E+000        
   1439.00000000000       2.947030000000000E-002 -8.458900000000000E-003        
  2.567000000000000E-003  0.000000000000000E+000  0.000000000000000E+000        
  0.000000000000000E+000  0.000000000000000E+000  0.000000000000000E+000        
   520.400000000000       8.783249999999999E-002 -2.596380000000000E-002        
  7.885500000000000E-003  0.000000000000000E+000  0.000000000000000E+000        
  0.000000000000000E+000  0.000000000000000E+000  0.000000000000000E+000        
   203.100000000000       0.211473000000000      -6.863619999999999E-002        
  2.108670000000000E-002  0.000000000000000E+000  0.000000000000000E+000        
  0.000000000000000E+000  0.000000000000000E+000  0.000000000000000E+000        
   83.9600000000000       0.365364000000000      -0.141874000000000             
  4.422640000000000E-002  0.000000000000000E+000  0.000000000000000E+000        
  0.000000000000000E+000  0.000000000000000E+000  0.000000000000000E+000        
   36.2000000000000       0.340884000000000      -0.199319000000000             
  6.516700000000000E-002  0.000000000000000E+000  0.000000000000000E+000        
  0.000000000000000E+000  0.000000000000000E+000  0.000000000000000E+000        
   15.8300000000000       0.102133000000000      -1.956620000000000E-002        
  6.030100000000000E-003  0.000000000000000E+000  0.000000000000000E+000        
  0.000000000000000E+000  0.000000000000000E+000  0.000000000000000E+000        
   6.33400000000000       3.116800000000000E-003  0.499741000000000             
 -0.206495000000000       0.000000000000000E+000  0.000000000000000E+000        
  0.000000000000000E+000  0.000000000000000E+000  0.000000000000000E+000        
   2.69400000000000       1.057500000000000E-003  0.563736000000000             
 -0.405871000000000       0.000000000000000E+000  0.000000000000000E+000        
  0.000000000000000E+000  0.000000000000000E+000  0.000000000000000E+000        
  0.976800000000000      -3.780000000000000E-004  7.903250000000001E-002        
  7.595580000000000E-002   1.00000000000000       0.000000000000000E+000        
  0.000000000000000E+000  0.000000000000000E+000  0.000000000000000E+000        
  0.431300000000000       1.561000000000000E-004 -8.350900000000000E-003        
  0.725661000000000       0.000000000000000E+000  0.000000000000000E+000        
  0.000000000000000E+000  0.000000000000000E+000  0.000000000000000E+000        
  0.162500000000000      -5.140000000000000E-005  2.324600000000000E-003        
  0.394423000000000       0.000000000000000E+000   1.00000000000000             
  0.000000000000000E+000  0.000000000000000E+000  0.000000000000000E+000        
   15.0640000000000       0.000000000000000E+000  0.000000000000000E+000        
  0.000000000000000E+000  0.000000000000000E+000  0.000000000000000E+000        
   1.00000000000000       0.000000000000000E+000  0.000000000000000E+000        
   2.87400000000000       0.000000000000000E+000  0.000000000000000E+000        
  0.000000000000000E+000  0.000000000000000E+000  0.000000000000000E+000        
  0.000000000000000E+000   1.00000000000000       0.000000000000000E+000        
  5.910000000000000E-002  0.000000000000000E+000  0.000000000000000E+000        
  0.000000000000000E+000  0.000000000000000E+000  0.000000000000000E+000        
  0.000000000000000E+000  0.000000000000000E+000   1.00000000000000             
   12    7                                                                      
   663.300000000000       2.404500000000000E-003 -6.521000000000000E-004        
  0.000000000000000E+000  0.000000000000000E+000  0.000000000000000E+000        
  0.000000000000000E+000  0.000000000000000E+000                                
   156.800000000000       1.921480000000000E-002 -5.194500000000000E-003        
  0.000000000000000E+000  0.000000000000000E+000  0.000000000000000E+000        
  0.000000000000000E+000  0.000000000000000E+000                                
   49.9800000000000       8.850970000000000E-002 -2.469380000000000E-002        
  0.000000000000000E+000  0.000000000000000E+000  0.000000000000000E+000        
  0.000000000000000E+000  0.000000000000000E+000                                
   18.4200000000000       0.256020000000000      -7.281670000000000E-002        
  0.000000000000000E+000  0.000000000000000E+000  0.000000000000000E+000        
  0.000000000000000E+000  0.000000000000000E+000                                
   7.24000000000000       0.436927000000000      -0.134030000000000             
  0.000000000000000E+000  0.000000000000000E+000  0.000000000000000E+000        
  0.000000000000000E+000  0.000000000000000E+000                                
   2.92200000000000       0.350334000000000      -9.477420000000000E-002        
  0.000000000000000E+000  0.000000000000000E+000  0.000000000000000E+000        
  0.000000000000000E+000  0.000000000000000E+000                                
   1.02200000000000       5.854950000000000E-002  0.262289000000000             
   1.00000000000000       0.000000000000000E+000  0.000000000000000E+000        
  0.000000000000000E+000  0.000000000000000E+000                                
  0.381800000000000      -4.584200000000000E-003  0.564667000000000             
  0.000000000000000E+000  0.000000000000000E+000  0.000000000000000E+000        
  0.000000000000000E+000  0.000000000000000E+000                                
  0.130100000000000       2.269700000000000E-003  0.341250000000000             
  0.000000000000000E+000   1.00000000000000       0.000000000000000E+000        
  0.000000000000000E+000  0.000000000000000E+000                                
   9.48000000000000       0.000000000000000E+000  0.000000000000000E+000        
  0.000000000000000E+000  0.000000000000000E+000   1.00000000000000             
  0.000000000000000E+000  0.000000000000000E+000                                
   3.66800000000000       0.000000000000000E+000  0.000000000000000E+000        
  0.000000000000000E+000  0.000000000000000E+000  0.000000000000000E+000        
   1.00000000000000       0.000000000000000E+000                                
  4.190000000000000E-002  0.000000000000000E+000  0.000000000000000E+000        
  0.000000000000000E+000  0.000000000000000E+000  0.000000000000000E+000        
  0.000000000000000E+000   1.00000000000000                                     
    5    5                                                                      
   1.04600000000000        1.00000000000000       0.000000000000000E+000        
  0.000000000000000E+000  0.000000000000000E+000  0.000000000000000E+000        
  0.344000000000000       0.000000000000000E+000   1.00000000000000             
  0.000000000000000E+000  0.000000000000000E+000  0.000000000000000E+000        
   17.9570000000000       0.000000000000000E+000  0.000000000000000E+000        
   1.00000000000000       0.000000000000000E+000  0.000000000000000E+000        
   5.76000000000000       0.000000000000000E+000  0.000000000000000E+000        
  0.000000000000000E+000   1.00000000000000       0.000000000000000E+000        
  0.135000000000000       0.000000000000000E+000  0.000000000000000E+000        
  0.000000000000000E+000  0.000000000000000E+000   1.00000000000000             
    3    3                                                                      
  0.706000000000000        1.00000000000000       0.000000000000000E+000        
  0.000000000000000E+000                                                        
   11.7790000000000       0.000000000000000E+000   1.00000000000000             
  0.000000000000000E+000                                                        
  0.312000000000000       0.000000000000000E+000  0.000000000000000E+000        
   1.00000000000000                                                             
FINISH                                                                          
 
********************************************************************************
 ONE- AND TWO-ELECTRON INTEGRALS OVER SYMMETRY-ADAPTED AOS ARE CALCULATED.

  SPHERICAL HARMONICS ARE USED.
  
  INTEGRALS LESS THAN  0.10E-13 ARE NEGLECTED.

  NUCLEAR REPULSION ENERGY :   49.0967709151 A.U.
  @MOLECU-I, ONE ELECTRON INTEGRALS (CPU/WALL):        0.04/       0.05 SECONDS.
  @TWOEL-I,   14179323 INTEGRALS OF SYMMETRY TYPE  I I I I
  @TWOEL-I,   13354595 INTEGRALS OF SYMMETRY TYPE  I J I J
  @TWOEL-I,    6908255 INTEGRALS OF SYMMETRY TYPE  I I J J
  @TWOEL-I, TOTAL NUMBER OF 2-E INTEGRALS   34442173.
  @MOLECU-I, TWO ELECTRON INTEGRALS (CPU/WALL):       55.43/       8.95 SECONDS.
 @CHECKOUT-I, Total execution time (CPU/WALL):       55.49/       9.02 seconds.

Running with 14 threads/proc

--executable xvmol finished with status     0 in        9.06 seconds (walltime).
 --invoking executable--
/home/asmola/.local/bin/xvmol2ja
 @GETMEM-I,  Allocated    3814 MB of main memory.
 @CHECKOUT-I, Total execution time (CPU/WALL):        0.10/       0.04 seconds.
--executable xvmol2ja finished with status     0 in        0.07 seconds (walltime).
 --invoking executable--
/home/asmola/.local/bin/xvscf
  There are  157 functions in the AO basis.

  There are 2 irreducible representations.

       Irrep        # of functions
         1                104
         2                 53


  Parameters for SCF calculation: 
        SCF reference function:  RHF  
  Maximum number of iterations:  150
     Full symmetry point group: C s 
     Computational point group: C s 
        Initial density matrix: MOREAD                 
     SCF convergence tolerance: 10**(-10)
  DIIS convergence acceleration:  ON
          Latest start for DIIS:   8
                     DIIS order:   6

  Memory information:    1209746 words required.
  Fock matrices are constructed from AO integral file.
 @GETMEM-I,  Allocated       9 MB of main memory.
  Initialization and symmetry analysis required      0.001 seconds.

  @INITGES-I, Occupancies from core Hamiltonian:

          Alpha population by irrep:  10    3
           Beta population by irrep:  10    3


 total no. of electrons in initial guess :  0.000000000000000E+000
  --------------------------------------------------------------------
  Iteration         Total Energy            Largest Density Difference
  --------------------------------------------------------------------
       0            49.096770915135224              0.0000000000D+00
   current occupation vector 
    10  3
    10  3
       1          -366.222005831752597              0.1325861527D+02
   current occupation vector 
    10  3
    10  3
       2          -342.609636612787767              0.1322906205D+02
   current occupation vector 
    10  3
    10  3
       3          -422.186134606892779              0.1069805859D+02
   current occupation vector 
    10  3
    10  3
       4          -340.108034626223230              0.1070595354D+02
   current occupation vector 
    10  3
    10  3
       5          -421.977763026260277              0.1065560244D+02
   current occupation vector 
    10  3
    10  3
       6          -340.031670672783775              0.1065578974D+02
   current occupation vector 
    10  3
    10  3
       7          -421.970855822124577              0.1065410939D+02
   current occupation vector 
    10  3
    10  3
       8          -340.029426438984672              0.1065411481D+02
   current occupation vector 
    10  3
    10  3
       9          -445.032615461327964              0.8448563361D+01
   current occupation vector 
    10  3
    10  3
      10          -465.249602361665836              0.2219656312D+01
   current occupation vector 
    10  3
    10  3
      11          -473.002308229998732              0.9339917318D+00
   current occupation vector 
    10  3
    10  3
      12          -473.245152709291972              0.4809401123D-01
   current occupation vector 
    10  3
    10  3
      13          -486.687876066715432              0.1733081425D+01
   current occupation vector 
    10  3
    10  3
      14          -494.076895836093001              0.7628418707D+00
   current occupation vector 
    10  3
    10  3
      15          -509.642159808749454              0.7285776134D+01
   current occupation vector 
    10  3
    10  3
      16          -524.216352381848878              0.7284430915D+01
   current occupation vector 
    11  2
    11  2
      17          -528.743607482315383              0.3661495953D+01
   current occupation vector 
    11  2
    11  2
      18          -532.116719510832809              0.1452275482D+01
   current occupation vector 
    11  2
    11  2
      19          -534.565771171728102              0.2285225596D+01
   current occupation vector 
    10  3
    10  3
      20          -534.772822660505199              0.6477273619D+00
   current occupation vector 
    10  3
    10  3
      21          -534.799955943398004              0.1950123769D+00
   current occupation vector 
    10  3
    10  3
      22          -534.803875931590028              0.8080470323D-01
   current occupation vector 
    10  3
    10  3
      23          -534.804616539330823              0.4282474608D-01
   current occupation vector 
    10  3
    10  3
      24          -534.804701767324332              0.1456890121D-01
   current occupation vector 
    10  3
    10  3
      25          -534.804714186434012              0.4866007780D-02
   current occupation vector 
    10  3
    10  3
      26          -534.804716072763540              0.1906196922D-02
   current occupation vector 
    10  3
    10  3
      27          -534.804716261792464              0.4148132651D-03
   current occupation vector 
    10  3
    10  3
      28          -534.804716290040119              0.1790914745D-03
   current occupation vector 
    10  3
    10  3
      29          -534.804716293762226              0.6926898007D-04
   current occupation vector 
    10  3
    10  3
      30          -534.804716294308150              0.3002700675D-04
   current occupation vector 
    10  3
    10  3
      31          -534.804716294407285              0.9509287677D-05
   current occupation vector 
    10  3
    10  3
      32          -534.804716294426157              0.6474716586D-05
   current occupation vector 
    10  3
    10  3
      33          -534.804716294429795              0.6974201012D-06
   current occupation vector 
    10  3
    10  3
      34          -534.804716294425475              0.3599994214D-06
   current occupation vector 
    10  3
    10  3
      35          -534.804716294430023              0.1609911244D-06
   current occupation vector 
    10  3
    10  3
      36          -534.804716294432978              0.5783153134D-07
   current occupation vector 
    10  3
    10  3
      37          -534.804716294425589              0.1820633222D-07
   current occupation vector 
    10  3
    10  3
      38          -534.804716294427180              0.9786735755D-08
   current occupation vector 
    10  3
    10  3
      39          -534.804716294431614              0.2732669424D-08
   current occupation vector 
    10  3
    10  3
      40          -534.804716294430136              0.1758411750D-08
   current occupation vector 
    10  3
    10  3
      41          -534.804716294430591              0.3093458822D-09
   current occupation vector 
    10  3
    10  3

  SCF has converged.

 Density matrix saved to file den.dat
 total electron number:   26.0000000000002     
     E(SCF)=      -534.804716294431387              0.6222469762D-10

  Eigenvector printing suppressed.

 @PUTMOS-I, Writing converged MOs to NEWMOS. 
 @PUTMOS-I, Symmetry   1 Full Blocks 26 Partial Blocksize   0
 @PUTMOS-I, Symmetry   2 Full Blocks 13 Partial Blocksize   1
 @PUTFOCK-I, Writing converged Fock matrix to NEWFOCK. 
 @PUTFOCK-I, Symmetry   1 Full Blocks 26 Partial Blocksize   0
 @PUTFOCK-I, Symmetry   2 Full Blocks 13 Partial Blocksize   1


 
  ORBITAL EIGENVALUES (ALPHA)  (1H = 27.2113834 eV)

       MO #        E(hartree)               E(eV)           FULLSYM    COMPSYM
       ----   --------------------   --------------------   -------   ---------
    1     1        -104.8828421110       -2854.0072287644     A'        A'  (1)
    2     2         -20.6650421939        -562.3243861149     A'        A'  (1)
    3     3         -10.6027364513        -288.5151266647     A'        A'  (1)
    4     4          -8.0694168726        -219.5799963349     A'        A'  (1)
    5     5          -8.0672127396        -219.5200188277     A'        A'  (1)
    6   105          -8.0670342513        -219.5151619136     A''       A'' (2)
    7     6          -1.3558950184         -36.8957791968     A'        A'  (1)
    8     7          -1.0296582024         -28.0184241163     A'        A'  (1)
    9     8          -0.6110966676         -16.6287857159     A'        A'  (1)
   10   106          -0.6027876704         -16.4026864086     A''       A'' (2)
   11     9          -0.5860619615         -15.9475567303     A'        A'  (1)
   12    10          -0.4379967511         -11.9184975235     A'        A'  (1)
   13   107          -0.4339208582         -11.8075868369     A''       A'' (2)
  +++++++++++++++++++++++++++++++++++++++++++++++++++++++++++++++++++++++++++++
   14    11          -0.0053981563          -0.1468913002     A'        A'  (1)
   15    12           0.0575592454           1.5662666936     A'        A'  (1)
   16    13           0.0911153044           2.4793734824     A'        A'  (1)
   17   108           0.1176756002           3.2021158729     A''       A'' (2)
   18    14           0.1190594870           3.2397733489     A'        A'  (1)
   19    15           0.1519404831           4.1345107409     A'        A'  (1)
   20    16           0.1648846444           4.4867392743     A'        A'  (1)
   21    17           0.1761216014           4.7925124215     A'        A'  (1)
   22   109           0.1925365170           5.2391849816     A''       A'' (2)
   23    18           0.2215068763           6.0275085354     A'        A'  (1)
   24   110           0.2489992304           6.7756135251     A''       A'' (2)
   25    19           0.2854342050           7.7670595882     A'        A'  (1)
   26    20           0.3223876111           8.7726128881     A'        A'  (1)
   27    21           0.3345187791           9.1027187521     A'        A'  (1)
   28   111           0.3763029039          10.2397225920     A''       A'' (2)
   29    22           0.3890124604          10.5855672074     A'        A'  (1)
   30   112           0.4252102361          11.5705587610     A''       A'' (2)
   31    23           0.4590174768          12.4905005482     A'        A'  (1)
   32    24           0.5087489143          13.8437617601     A'        A'  (1)
   33    25           0.5908659552          16.0782800440     A'        A'  (1)
   34   113           0.6176515168          16.8071522317     A''       A'' (2)
   35    26           0.6581170709          17.9082759375     A'        A'  (1)
   36    27           0.6772255400          18.4282438169     A'        A'  (1)
   37   114           0.7484451255          20.3662272647     A''       A'' (2)
   38    28           0.7538123431          20.5122766795     A'        A'  (1)
   39    29           0.7653183407          20.8253707916     A'        A'  (1)
   40   115           0.7740575797          21.0631775760     A''       A'' (2)
   41    30           0.8155615240          22.1925573171     A'        A'  (1)
   42    31           0.8378551501          22.7991977228     A'        A'  (1)
   43   116           0.8425163162          22.9260345005     A''       A'' (2)
   44   117           0.8952986601          24.3623150980     A''       A'' (2)
   45    32           0.9009746877          24.5167676610     A'        A'  (1)
   46    33           0.9456857346          25.7334170990     A'        A'  (1)
   47   118           0.9466487703          25.7596226351     A''       A'' (2)
   48   119           0.9485126374          25.8103410367     A''       A'' (2)
   49    34           0.9686629867          26.3586599178     A'        A'  (1)
   50    35           1.0148700125          27.6160170123     A'        A'  (1)
   51    36           1.0308229199          28.0501176918     A'        A'  (1)
   52    37           1.0958255497          29.8189291732     A'        A'  (1)
   53   120           1.1130026690          30.2863423509     A''       A'' (2)
   54    38           1.1202505706          30.4835677816     A'        A'  (1)
   55   121           1.1738015902          31.9407651055     A''       A'' (2)
   56    39           1.2221899878          33.2574803454     A'        A'  (1)
   57    40           1.2541326207          34.1266835752     A'        A'  (1)
   58   122           1.3293118361          36.1724140303     A''       A'' (2)
   59   123           1.3915318050          37.8655054579     A''       A'' (2)
   60    41           1.4295946223          38.9012473738     A'        A'  (1)
   61    42           1.4995364312          40.8044607508     A'        A'  (1)
   62   124           1.5247234748          41.4898350509     A''       A'' (2)
   63    43           1.5526999245          42.2511129515     A'        A'  (1)
   64    44           1.6243022550          44.1995114170     A'        A'  (1)
   65    45           1.7334530245          47.1696548551     A'        A'  (1)
   66    46           1.8265608354          49.7032471949     A'        A'  (1)
   67   125           2.1633602571          58.8680253893     A''       A'' (2)
   68    47           2.2143221219          60.2547682293     A'        A'  (1)
   69   126           2.2180936771          60.3573974655     A''       A'' (2)
   70    48           2.2720395139          61.8253383135     A'        A'  (1)
   71    49           2.3073850860          62.7871402272     A'        A'  (1)
   72   127           2.3088587238          62.8272399508     A''       A'' (2)
   73    50           2.3245100325          63.2531337125     A'        A'  (1)
   74    51           2.3699689575          64.4901339485     A'        A'  (1)
   75   128           2.4308441423          66.1466319423     A''       A'' (2)
   76    52           2.4317650379          66.1716907851     A'        A'  (1)
   77   129           2.4525239744          66.7365701646     A''       A'' (2)
   78   130           2.4803344419          67.4933314579     A''       A'' (2)
   79    53           2.5024032965          68.0938555213     A'        A'  (1)
   80   131           2.5492602048          69.3688968180     A''       A'' (2)
   81    54           2.5950276301          70.6142917773     A'        A'  (1)
   82    55           2.7045436011          73.5943728507     A'        A'  (1)
   83    56           2.8836116557          78.4670623406     A'        A'  (1)
   84   132           2.9018965597          78.9646198730     A''       A'' (2)
   85    57           2.9754385738          80.9657998139     A'        A'  (1)
   86    58           3.0569133764          83.1828419060     A'        A'  (1)
   87   133           3.0647184750          83.3952294365     A''       A'' (2)
   88   134           3.1109677800          84.6537370055     A''       A'' (2)
   89    59           3.1308008800          85.1934230958     A'        A'  (1)
   90    60           3.2118311797          87.3983696467     A'        A'  (1)
   91    61           3.2217661670          87.6687143951     A'        A'  (1)
   92   135           3.3626049996          91.5011338660     A''       A'' (2)
   93    62           3.3754423358          91.8504555447     A'        A'  (1)
   94    63           3.4179538173          93.0072517669     A'        A'  (1)
   95    64           3.8044191622         103.5235084367     A'        A'  (1)
   96   136           3.8425711170         104.5616759073     A''       A'' (2)
   97    65           3.9039305675         106.2313514383     A'        A'  (1)
   98    66           4.0089382976         109.0887570441     A'        A'  (1)
   99   137           4.0402840257         109.9417176685     A''       A'' (2)
  100   138           4.1611525912         113.2307185462     A''       A'' (2)
  101   139           4.2396965733         115.3680089551     A''       A'' (2)
  102    67           4.2642549005         116.0362750135     A'        A'  (1)
  103    68           4.2899802936         116.7362985479     A'        A'  (1)
  104    69           4.6364679331         126.1647065484     A'        A'  (1)
  105    70           5.0979568892         138.7224594677     A'        A'  (1)
  106    71           5.3024929835         144.2881695510     A'        A'  (1)
  107    72           5.8750964121         159.8695009807     A'        A'  (1)
  108   140           6.5890925846         179.2983245786     A''       A'' (2)
  109    73           6.6406394375         180.7009857544     A'        A'  (1)
  110   141           6.6878202783         181.9848417028     A''       A'' (2)
  111    74           6.7041066409         182.4280161593     A'        A'  (1)
  112   142           6.7750245798         184.3577913843     A''       A'' (2)
  113    75           6.8953872027         187.6330248635     A'        A'  (1)
  114    76           6.9832590461         190.0241392859     A'        A'  (1)
  115   143           7.0852256663         192.7987920816     A''       A'' (2)
  116    77           7.1424504313         194.3559571006     A'        A'  (1)
  117   144           7.1743523180         195.2240515729     A''       A'' (2)
  118    78           7.5885544554         206.4950647381     A'        A'  (1)
  119    79           7.7469401218         210.8049578315     A'        A'  (1)
  120   145          10.3557751010         281.7949666762     A''       A'' (2)
  121    80          10.3593378189         281.8919131592     A'        A'  (1)
  122   146          10.3941757105         282.8399003849     A''       A'' (2)
  123    81          10.4397518888         284.0800912480     A'        A'  (1)
  124    82          10.6028705100         288.5187745875     A'        A'  (1)
  125   147          12.6854753942         345.1893345616     A''       A'' (2)
  126    83          12.7317238652         346.4478194382     A'        A'  (1)
  127    84          13.2031084992         359.2748474432     A'        A'  (1)
  128    85          18.2628133082         496.9564148908     A'        A'  (1)
  129   148          26.0533820424         708.9485676220     A''       A'' (2)
  130    86          26.2955516431         715.5383374750     A'        A'  (1)
  131    87          26.5785138662         723.2381310153     A'        A'  (1)
  132    88          28.7460051834         782.2185682646     A'        A'  (1)
  133   149          36.9025096812        1004.1683393563     A''       A'' (2)
  134    89          36.9037220259        1004.2013289339     A'        A'  (1)
  135   150          36.9037641584        1004.2024754166     A''       A'' (2)
  136    90          36.9060114553        1004.2636274739     A'        A'  (1)
  137   151          36.9118466565        1004.4224113719     A''       A'' (2)
  138    91          36.9119520628        1004.4252796235     A'        A'  (1)
  139    92          36.9162578091        1004.5424449369     A'        A'  (1)
  140   152          43.8711674274        1193.7951570723     A''       A'' (2)
  141    93          43.8822361312        1194.0963518162     A'        A'  (1)
  142   153          43.9003026898        1194.5879678686     A''       A'' (2)
  143    94          44.0120017882        1197.6274548612     A'        A'  (1)
  144    95          44.0699679606        1199.2047946020     A'        A'  (1)
  145   154          46.4897068377        1265.0492369152     A''       A'' (2)
  146    96          46.4917044129        1265.1035937001     A'        A'  (1)
  147   155          46.5145574358        1265.7254560668     A''       A'' (2)
  148    97          46.5385859356        1266.3793047865     A'        A'  (1)
  149    98          46.6210663070        1268.6237097979     A'        A'  (1)
  150   156          55.0249052213        1497.3037925268     A''       A'' (2)
  151    99          55.0757352697        1498.6869484599     A'        A'  (1)
  152   100          55.6282246835        1513.7209497239     A'        A'  (1)
  153   101         103.8204340829        2825.0976365854     A'        A'  (1)
  154   157         138.2147322570        3761.0140709730     A''       A'' (2)
  155   102         138.3774090221        3765.4407307978     A'        A'  (1)
  156   103         138.5870958011        3771.1465981374     A'        A'  (1)
  157   104         149.4581473371        4066.9629494438     A'        A'  (1)


  VSCF finished.

 @CHECKOUT-I, Total execution time (CPU/WALL):       70.75/      13.41 seconds.
--executable xvscf finished with status     0 in       13.44 seconds (walltime).
 --invoking executable--
/home/asmola/.local/bin/xvtran
 @GETMEM-I,  Allocated    3814 MB of main memory.
  Full RHF integral transformation
  Transformation of IIII integrals :
  1 pass through the AO integral file was required.
    14179323 AO integrals were read.
    15933126 MO integrals were written to HF2.
  Transformation of IIJJ integrals :
  1 pass through the AO integral file was required.
     6908255 AO integrals were read.
     7813260 MO integrals were written to HF2.
  Transformation of IJIJ integrals :
  1 pass through the AO integral file was required.
    13354595 AO integrals were read.
    15193828 MO integrals were written to HF2.
  Summary of active molecular orbitals: 
------------------------------------------------------------------------
 
  Index      Eigenvalue    Symmetry    Index      Eigenvalue    Symmetry
------------------------------------------------------------------------
     1      -104.8828421        1        80         7.1424504        1
     2       -20.6650422        1        81         7.5885545        1
     3       -10.6027365        1        82         7.7469401        1
     4        -8.0694169        1        83        10.3593378        1
     5        -8.0672127        1        84        10.4397519        1
     6        -1.3558950        1        85        10.6028705        1
     7        -1.0296582        1        86        12.7317239        1
     8        -0.6110967        1        87        13.2031085        1
     9        -0.5860620        1        88        18.2628133        1
    10        -0.4379968        1        89        26.2955516        1
    11        -8.0670343        2        90        26.5785139        1
    12        -0.6027877        2        91        28.7460052        1
    13        -0.4339209        2        92        36.9037220        1
    14        -0.0053982        1        93        36.9060115        1
    15         0.0575592        1        94        36.9119521        1
    16         0.0911153        1        95        36.9162578        1
    17         0.1190595        1        96        43.8822361        1
    18         0.1519405        1        97        44.0120018        1
    19         0.1648846        1        98        44.0699680        1
    20         0.1761216        1        99        46.4917044        1
    21         0.2215069        1       100        46.5385859        1
    22         0.2854342        1       101        46.6210663        1
    23         0.3223876        1       102        55.0757353        1
    24         0.3345188        1       103        55.6282247        1
    25         0.3890125        1       104       103.8204341        1
    26         0.4590175        1       105       138.3774090        1
    27         0.5087489        1       106       138.5870958        1
    28         0.5908660        1       107       149.4581473        1
    29         0.6581171        1       108         0.1176756        2
    30         0.6772255        1       109         0.1925365        2
    31         0.7538123        1       110         0.2489992        2
    32         0.7653183        1       111         0.3763029        2
    33         0.8155615        1       112         0.4252102        2
    34         0.8378552        1       113         0.6176515        2
    35         0.9009747        1       114         0.7484451        2
    36         0.9456857        1       115         0.7740576        2
    37         0.9686630        1       116         0.8425163        2
    38         1.0148700        1       117         0.8952987        2
    39         1.0308229        1       118         0.9466488        2
    40         1.0958255        1       119         0.9485126        2
    41         1.1202506        1       120         1.1130027        2
    42         1.2221900        1       121         1.1738016        2
    43         1.2541326        1       122         1.3293118        2
    44         1.4295946        1       123         1.3915318        2
    45         1.4995364        1       124         1.5247235        2
    46         1.5526999        1       125         2.1633603        2
    47         1.6243023        1       126         2.2180937        2
    48         1.7334530        1       127         2.3088587        2
    49         1.8265608        1       128         2.4308441        2
    50         2.2143221        1       129         2.4525240        2
    51         2.2720395        1       130         2.4803344        2
    52         2.3073851        1       131         2.5492602        2
    53         2.3245100        1       132         2.9018966        2
    54         2.3699690        1       133         3.0647185        2
    55         2.4317650        1       134         3.1109678        2
    56         2.5024033        1       135         3.3626050        2
    57         2.5950276        1       136         3.8425711        2
    58         2.7045436        1       137         4.0402840        2
    59         2.8836117        1       138         4.1611526        2
    60         2.9754386        1       139         4.2396966        2
    61         3.0569134        1       140         6.5890926        2
    62         3.1308009        1       141         6.6878203        2
    63         3.2118312        1       142         6.7750246        2
    64         3.2217662        1       143         7.0852257        2
    65         3.3754423        1       144         7.1743523        2
    66         3.4179538        1       145        10.3557751        2
    67         3.8044192        1       146        10.3941757        2
    68         3.9039306        1       147        12.6854754        2
    69         4.0089383        1       148        26.0533820        2
    70         4.2642549        1       149        36.9025097        2
    71         4.2899803        1       150        36.9037642        2
    72         4.6364679        1       151        36.9118467        2
    73         5.0979569        1       152        43.8711674        2
    74         5.3024930        1       153        43.9003027        2
    75         5.8750964        1       154        46.4897068        2
    76         6.6406394        1       155        46.5145574        2
    77         6.7041066        1       156        55.0249052        2
    78         6.8953872        1       157       138.2147323        2
    79         6.9832590        1
------------------------------------------------------------------------
  -104.882842111011       -20.6650421938832       -10.6027364512701     
  -8.06941687260713       -8.06721273963830       -1.35589501843479     
  -1.02965820239253      -0.611096667576175      -0.586061961489686     
 -0.437996751148668       -8.06703425131959      -0.602787670420981     
 -0.433920858168244      -5.398156282082412E-003  5.755924535475340E-002
  9.111530442669755E-002  0.119059487026474       0.151940483148230     
  0.164884644353220       0.176121601429325       0.221506876251883     
  0.285434205016167       0.322387611064749       0.334518779083422     
  0.389012460401644       0.459017476789890       0.508748914252848     
  0.590865955164491       0.658117070868788       0.677225539987682     
  0.753812343091880       0.765318340691179       0.815561524044999     
  0.837855150092621       0.900974687711414       0.945685734559433     
  0.968662986748516        1.01487001253517        1.03082291993467     
   1.09582554972869        1.12025057063441        1.22218998778849     
   1.25413262065814        1.42959462229394        1.49953643116876     
   1.55269992452765        1.62430225495167        1.73345302448405     
   1.82656083537687        2.21432212186969        2.27203951393036     
   2.30738508602151        2.32451003253649        2.36996895749598     
   2.43176503790390        2.50240329645797        2.59502763013936     
   2.70454360106797        2.88361165572351        2.97543857376485     
   3.05691337640766        3.13080088004049        3.21183117969141     
   3.22176616698924        3.37544233582560        3.41795381733219     
   3.80441916219280        3.90393056746625        4.00893829764201     
   4.26425490052424        4.28998029361208        4.63646793306395     
   5.09795688916415        5.30249298354346        5.87509641206657     
   6.64063943747915        6.70410664087229        6.89538720267692     
   6.98325904613665        7.14245043126383        7.58855445541436     
   7.74694012181175        10.3593378188645        10.4397518888381     
   10.6028705099748        12.7317238651761        13.2031084991872     
   18.2628133081548        26.2955516431021        26.5785138661959     
   28.7460051834252        36.9037220259040        36.9060114552596     
   36.9119520628081        36.9162578091081        43.8822361312270     
   44.0120017882354        44.0699679606143        46.4917044129441     
   46.5385859355651        46.6210663070464        55.0757352696711     
   55.6282246834933        103.820434082944        138.377409022058     
   138.587095801141        149.458147337109       0.117675600162955     
  0.192536516962969       0.248999230412508       0.376302903880915     
  0.425210236131459       0.617651516818320       0.748445125533068     
  0.774057579740348       0.842516316185915       0.895298660120147     
  0.946648770349406       0.948512637422788        1.11300266898347     
   1.17380159016452        1.32931183609948        1.39153180495473     
   1.52472347476646        2.16336025713907        2.21809367713107     
   2.30885872384013        2.43084414231907        2.45252397438261     
   2.48033444186989        2.54926020475773        2.90189655969550     
   3.06471847500943        3.11096777995776        3.36260499956694     
   3.84257111703194        4.04028402571170        4.16115259124128     
   4.23969657327835        6.58909258463554        6.68782027828920     
   6.77502457976123        7.08522566631564        7.17435231804242     
   10.3557751009539        10.3941757104806        12.6854753941559     
   26.0533820423857        36.9025096811621        36.9037641583714     
   36.9118466564965        43.8711674273911        43.9003026898133     
   46.4897068377365        46.5145574357958        55.0249052213481     
   138.214732256978     
 @CHECKOUT-I, Total execution time (CPU/WALL):       34.32/      19.42 seconds.
--executable xvtran finished with status     0 in       19.48 seconds (walltime).
 --invoking executable--
/home/asmola/.local/bin/xintprc
 @GETMEM-I,  Allocated    3814 MB of main memory.
  Processing integrals for CCSD calculation.
  @GMOIAA-I, Processing MO integrals for spin case AA.
  @GMOIAA-I, Generation of integral list completed.
                      TYPE                NUMBER
                      ----               --------
                      PPPP              27524020
                      PPPH               9932000
                      PPHH                900748
                      PHPH                491140
                      PHHH                 89950
                      HHHH                  2356

                     TOTAL              38940214

  @FORMT2-I, Second-order MP correlation energies:
            ------------------------------------------------
            E(SCF)                  =   -534.804716294431 a.u.
            E2(AA)                  =     -0.110461730982 a.u.
            E2(AB)                  =     -0.651404324187 a.u.
            E2(TOT)                 =     -0.872327786151 a.u.
            Total MP2 energy        =   -535.677044080583 a.u.
            ------------------------------------------------
   Largest T2 amplitudes for spin case AB:
       _       _                 _       _                 _       _
   i   j   a   b             i   j   a   b             i   j   a   b
-----------------------------------------------------------------------------
[  8   8  14  14]-0.02795 [ 10  10  14  14]-0.02665 [  9   9  19  19]-0.02379
[ 10   8  14  14]-0.02327 [  8  10  14  14]-0.02327 [  8   8  19  19]-0.02168
[  9   9  14  14]-0.02098 [  8   8  16  16]-0.01965 [  8   8  16  14]-0.01897
[  8   8  14  16]-0.01897 [ 13  13 112 112]-0.01761 [  9   8  19  19] 0.01727
[  8   9  19  19] 0.01727 [ 10   8  14  16]-0.01664 [  8  10  16  14]-0.01664
-----------------------------------------------------------------------------
   Norm of T2AB vector (  1799624 symmetry allowed elements):  0.3588788611.
-----------------------------------------------------------------------------
 @CHECKOUT-I, Total execution time (CPU/WALL):        7.41/      10.40 seconds.
--executable xintprc finished with status     0 in       10.54 seconds (walltime).
  calling xvcc 
 --invoking executable--
/home/asmola/.local/bin/xvcc
 @GETMEM-I,  Allocated    3814 MB of main memory.
   CCSD energy will be calculated.
   The total correlation energy is -0.872327786151 a.u.
   The total correlation energy is -0.862475737148 a.u.
  Convergence information after     1 iterations: 
  Largest element of residual vector : -0.16009630E-01.
  Largest element of DIIS residual   : -0.16009630E-01.
   The total correlation energy is -0.883389117551 a.u.
  Convergence information after     2 iterations: 
  Largest element of residual vector : -0.74837335E-02.
  Largest element of DIIS residual   : -0.67570798E-02.
   The total correlation energy is -0.882303021943 a.u.
  Convergence information after     3 iterations: 
  Largest element of residual vector :  0.51220516E-02.
  Largest element of DIIS residual   :  0.49354010E-02.
   The total correlation energy is -0.884961533010 a.u.
  Convergence information after     4 iterations: 
  Largest element of residual vector : -0.14957681E-02.
  Largest element of DIIS residual   :  0.10093728E-02.
   The total correlation energy is -0.885417987801 a.u.
  Convergence information after     5 iterations: 
  Largest element of residual vector :  0.17069890E-02.
  Largest element of DIIS residual   :  0.99231667E-03.
   The total correlation energy is -0.885455282538 a.u.
  Convergence information after     6 iterations: 
  Largest element of residual vector :  0.54427036E-03.
  Largest element of DIIS residual   :  0.26998411E-03.
   The total correlation energy is -0.885465956316 a.u.
  Convergence information after     7 iterations: 
  Largest element of residual vector :  0.37364310E-03.
  Largest element of DIIS residual   :  0.19577115E-03.
   The total correlation energy is -0.885471033345 a.u.
  Convergence information after     8 iterations: 
  Largest element of residual vector :  0.11251541E-03.
  Largest element of DIIS residual   :  0.58134584E-04.
   The total correlation energy is -0.885467705880 a.u.
  Convergence information after     9 iterations: 
  Largest element of residual vector :  0.55453766E-04.
  Largest element of DIIS residual   : -0.32819425E-04.
   The total correlation energy is -0.885472038544 a.u.
  Convergence information after    10 iterations: 
  Largest element of residual vector :  0.22874021E-04.
  Largest element of DIIS residual   :  0.13901418E-04.
   The total correlation energy is -0.885472452815 a.u.
  Convergence information after    11 iterations: 
  Largest element of residual vector :  0.10781446E-04.
  Largest element of DIIS residual   :  0.73282215E-05.
   The total correlation energy is -0.885473503928 a.u.
  Convergence information after    12 iterations: 
  Largest element of residual vector :  0.55742512E-05.
  Largest element of DIIS residual   :  0.47230982E-05.
   The total correlation energy is -0.885473967991 a.u.
  Convergence information after    13 iterations: 
  Largest element of residual vector :  0.22092608E-05.
  Largest element of DIIS residual   :  0.16215141E-05.
   The total correlation energy is -0.885474109416 a.u.
  Convergence information after    14 iterations: 
  Largest element of residual vector :  0.20714678E-05.
  Largest element of DIIS residual   :  0.12742361E-05.
   The total correlation energy is -0.885474182418 a.u.
  Convergence information after    15 iterations: 
  Largest element of residual vector :  0.77621936E-06.
  Largest element of DIIS residual   :  0.48957768E-06.
   The total correlation energy is -0.885474197677 a.u.
  Convergence information after    16 iterations: 
  Largest element of residual vector :  0.56881297E-06.
  Largest element of DIIS residual   :  0.18936114E-06.
   The total correlation energy is -0.885474210955 a.u.
  Convergence information after    17 iterations: 
  Largest element of residual vector :  0.22926654E-06.
  Largest element of DIIS residual   :  0.83124998E-07.
   The total correlation energy is -0.885474211631 a.u.
  Convergence information after    18 iterations: 
  Largest element of residual vector :  0.61415201E-07.
  Largest element of DIIS residual   :  0.56439650E-07.
   The total correlation energy is -0.885474212924 a.u.
  Convergence information after    19 iterations: 
  Largest element of residual vector :  0.45194019E-07.
  Largest element of DIIS residual   :  0.28694313E-07.
   The total correlation energy is -0.885474215555 a.u.
  Convergence information after    20 iterations: 
  Largest element of residual vector :  0.19679177E-07.
  Largest element of DIIS residual   :  0.17701705E-07.
   The total correlation energy is -0.885474215890 a.u.
  Convergence information after    21 iterations: 
  Largest element of residual vector :  0.13468125E-07.
  Largest element of DIIS residual   :  0.88510105E-08.
   The total correlation energy is -0.885474216783 a.u.
  Convergence information after    22 iterations: 
  Largest element of residual vector :  0.63387096E-08.
  Largest element of DIIS residual   :  0.49425565E-08.
   The total correlation energy is -0.885474216804 a.u.
  Convergence information after    23 iterations: 
  Largest element of residual vector :  0.35219561E-08.
  Largest element of DIIS residual   :  0.17615877E-08.
   The total correlation energy is -0.885474216868 a.u.
  Convergence information after    24 iterations: 
  Largest element of residual vector :  0.11480466E-08.
  Largest element of DIIS residual   :  0.62783875E-09.
   The total correlation energy is -0.885474216852 a.u.
  Convergence information after    25 iterations: 
  Largest element of residual vector :  0.45711576E-09.
  Largest element of DIIS residual   :  0.34678787E-09.
   The total correlation energy is -0.885474216839 a.u.
  Convergence information after    26 iterations: 
  Largest element of residual vector :  0.24660601E-09.
  Largest element of DIIS residual   :  0.10394969E-09.
   The total correlation energy is -0.885474216847 a.u.
  Convergence information after    27 iterations: 
  Largest element of residual vector :  0.80823392E-10.
  Largest element of DIIS residual   :  0.70055762E-10.
  Amplitude equations converged in    27iterations.
   The total correlation energy is -0.885474216847 a.u.
   The CC iterations have converged.

   Largest T1 amplitudes for spin case AA:
   i       a                 i       a                 i       a    
[...]
 term  0.455521801457872     
 final tnorm  0.805952102090310     
  norm contr. I: |<0|L dT/dx|0>|^2   0.000000000000000E+000
  norm contr. II: <0|[nabla(1+L)e-T][nabla e^T]|0>  0.455521801457872     
  total norm contribution  0.455521801457872     
 oo  2.174390935459275E-003
 vv  -1.52987553376752     
 vo -3.046298571405577E-002
  Correlated perturbed 1-el contribution to DBOC  -1.55816412854611       cm**-1
  SUM_I |dc_I/dx|^2 contribution to DBOC  0.784400483950893       cm**-1
 
 
  The total diagonal Born-Oppenheimer correction (DBOC) is:      0.0087425584 a.u.
  The total diagonal Born-Oppenheimer correction (DBOC) is:       1918.769780 cm-1
 
 Total CC energy including DBOC  -535.681447952889     
 First-order density matrix is being calculated  (Symmetry block 2, perturbation   3)
 Calculation of the contributions of <pq||rs> to dI(i,j)/dx required   3.4 seconds.
 Calculation of the contributions of <pq||rs> to dI(a,b)/dx required  10.2 seconds.
 Calculation of the contributions of <pq||rs> to dI(i,a)/dx required   6.1 seconds.
 First-order Z-vector equations are solved for 1 perturbation.
 Convergence reached after  23 iterations.
        U*G(pq,rs) contribution is being calculated
             (Symmetry block 2, perturbation   3)

 CCSD contribution to force constants 

        0.0000000000        0.0000000000        0.0000000000
        0.0000000000        0.0000000000        0.0000000000
        0.0000000000        0.0000000000        0.0000000000
        0.0000000000        0.0000000000        0.0000000000
        0.0000000000        0.0000000000        0.0000000000
        0.0000000000        0.0000000000        0.0000000000
        0.0000000000        0.0000000000        0.0000000000
        0.0000000000        0.0000000000        0.0000000000
        0.0000000000        0.0000000000        0.0000000000
        0.0000000000        0.0000000000        0.0000000000
        0.0000000000        0.0000000000        0.0000000000
        0.0000000000        0.0000000000        0.0000000000
        0.0000000000        0.0000000000        0.0000000000
        0.0000000000        0.0000000000        0.0000000000
        0.0000000000        0.0000000000        0.0000000000
        0.0000000000        0.0000000000        0.0000000000
        0.0000000000        0.0000000000        0.0000000000
        0.0000000000        0.0000000000        0.0000000000
        0.0000000000        0.0000000000        0.0000000000
        0.0000000000        0.0000000000        0.0000000000
        0.0000000000        0.0000000000        0.0000000000
        0.0000000000        0.0000000000        0.0000000000
        0.0000000000        0.0000000000        0.0000000000
        0.0000000000        0.0000000000        0.0000000000
        0.0000000000        0.0000000000        0.0000000000
        0.0000000000        0.0000000000        0.0000000000
        0.0724169134       -0.0035012012       -0.0689157122

 CCSD contribution to dipole derivatives 

        0.0000000000        0.0000000000        0.0000000000
        0.0000000000        0.0000000000        0.0000000000
        0.0000000000        0.0000000000        0.0000000000
        0.0000000000        0.0000000000        0.0000000000
        0.0000000000        0.0000000000        0.0000000000
        0.0000000000        0.0000000000        0.0000000000
        0.0000000000        0.0000000000        0.0000000000
        0.0000000000        0.0000000000        0.0000000000
        0.0000000000        0.0000000000        0.0189435146
 @CHECKOUT-I, Total execution time (CPU/WALL):     1001.88/     256.07 seconds.
--executable xsdcc finished with status     0 in      256.23 seconds (walltime).
 --invoking executable--
/home/asmola/.local/bin/xanti
 @GETMEM-I,  Allocated    3814 MB of main memory.
 CCSD MO derivative gammas will be sorted to Mulliken order.
 @CHECKOUT-I, Total execution time (CPU/WALL):        6.33/       4.93 seconds.
--executable xanti finished with status     0 in        5.06 seconds (walltime).
 --invoking executable--
/home/asmola/.local/bin/xbcktrn
 @GETMEM-I,  Allocated    3814 MB of main memory.
 CCSD MO derivative gammas will be transformed to the AO basis.
 @CHECKOUT-I, Total execution time (CPU/WALL):       12.38/       2.70 seconds.
--executable xbcktrn finished with status     0 in        2.76 seconds (walltime).
 --invoking executable--
/home/asmola/.local/bin/xvdint
 @GETMEM-I,  Allocated    3814 MB of main memory.
 One- and two-electron integral derivatives are calculated
 for RHF-CC/MBPT hessians and dipole derivatives.
 Spherical gaussians are used.
  magnet F F
 Evaluation of 2el integral derivatives

                      Two-electron integral gradient
                      ------------------------------

                         O #1 x     0.0000000000
                         O #1 y     0.0000000000
                         H #2 x     0.0000000000
                         H #2 y     0.0000000000
                         CL#3 x     0.0000000000
                         CL#3 y     0.0000000000


 O #1       0.0000000000            0.0000000000           -0.0859637002
 H #2       0.0000000000            0.0000000000            0.0021778599
 CL#3       0.0000000000            0.0000000000            0.0837858403


 Evaluation of 2e integral derivatives required  109.99 seconds.
  contribution to Hessian
        0.0000000000        0.0000000000        0.0000000000
        0.0000000000        0.0000000000        0.0000000000
       -0.0859637002        0.0021778599        0.0837858403
 @CHECKOUT-I, Total execution time (CPU/WALL):      110.20/      19.81 seconds.
--executable xvdint finished with status     0 in       19.92 seconds (walltime).
 --invoking executable--
/home/asmola/.local/bin/xanti
 @GETMEM-I,  Allocated    3814 MB of main memory.
 CCSD MO gammas will be sorted to Mulliken order.
 @CHECKOUT-I, Total execution time (CPU/WALL):        9.34/      16.59 seconds.
--executable xanti finished with status     0 in       16.69 seconds (walltime).
 --invoking executable--
/home/asmola/.local/bin/xbcktrn
 @GETMEM-I,  Allocated    3814 MB of main memory.
 CCSD MO gammas will be transformed to the AO basis.
 @CHECKOUT-I, Total execution time (CPU/WALL):       18.19/       2.59 seconds.
--executable xbcktrn finished with status     0 in        2.66 seconds (walltime).
 --invoking executable--
/home/asmola/.local/bin/xvdint
 @GETMEM-I,  Allocated    3814 MB of main memory.
 One- and two-electron integral derivatives are calculated
 for RHF-CC/MBPT hessians and dipole derivatives.
 Spherical gaussians are used.
  magnet F F

                     Kinetic energy integral gradient
                     --------------------------------

                         O #1 x     0.2680727025
                         O #1 y    -0.1531230752
                         H #2 x     0.0726055303
                         H #2 y     0.1483454181
                         CL#3 x    -0.3406782328
                         CL#3 y     0.0047776571


 O #1       0.2680727025           -0.1531230752            0.0000000000
 H #2       0.0726055303            0.1483454181            0.0000000000
 CL#3      -0.3406782328            0.0047776571            0.0000000000



                   Nuclear attraction integral gradient
                   ------------------------------------

                         O #1 x   -25.0041849030
                         O #1 y     4.6077064270
                         H #2 x    -2.4208923425
                         H #2 y    -3.6813226276
                         CL#3 x    27.4250772455
                         CL#3 y    -0.9263837994


 O #1     -25.0041849030            4.6077064270            0.0000000000
 H #2      -2.4208923425           -3.6813226276            0.0000000000
 CL#3      27.4250772455           -0.9263837994            0.0000000000



                      Reorthonormalization gradient
                      -----------------------------

                         O #1 x     0.0000000000
                         O #1 y     0.0000000000
                         H #2 x     0.0000000000
                         H #2 y     0.0000000000
                         CL#3 x     0.0000000000
                         CL#3 y     0.0000000000


 O #1       0.0000000000            0.0000000000            0.0000000000
 H #2       0.0000000000            0.0000000000            0.0000000000
 CL#3       0.0000000000            0.0000000000            0.0000000000



                     Kinetic energy integral Hessian
                     -------------------------------


           Symmetry 1

           O #1 x      O #1 y      H #2 x      H #2 y      CL#3 x      CL#3 y

 O #1 x    0.338821
 O #1 y    0.079979   -0.100989
 H #2 x    0.038412   -0.102426   -0.044093
 H #2 y   -0.102426   -0.117623    0.102638    0.120951
 CL#3 x   -0.377233    0.022448    0.005681   -0.000212    0.371552
 CL#3 y    0.022448    0.218612   -0.000212   -0.003328   -0.022236   -0.215284


           Symmetry 2

           O #1 z      H #2 z      CL#3 z

 O #1 z   -0.307091
 H #2 z    0.096089   -0.095014
 CL#3 z    0.211002   -0.001074   -0.209927




           O #1 x      O #1 y      O #1 z      H #2 x      H #2 y      H #2 z

 O #1 x    0.338821
 O #1 y    0.079979   -0.100989
 O #1 z    0.000000    0.000000   -0.307091

 H #2 x    0.038412   -0.102426    0.000000   -0.044093
 H #2 y   -0.102426   -0.117623    0.000000    0.102638    0.120951
 H #2 z    0.000000    0.000000    0.096089    0.000000    0.000000   -0.095014

 CL#3 x   -0.377233    0.022448    0.000000    0.005681   -0.000212    0.000000
 CL#3 y    0.022448    0.218612    0.000000   -0.000212   -0.003328    0.000000
 CL#3 z    0.000000    0.000000    0.211002    0.000000    0.000000   -0.001074


           CL#3 x      CL#3 y      CL#3 z

 CL#3 x    0.371552
 CL#3 y   -0.022236   -0.215284
 CL#3 z    0.000000    0.000000   -0.209927




                   Nuclear attraction integral Hessian
                   -----------------------------------


           Symmetry 1

           O #1 x      O #1 y      H #2 x      H #2 y      CL#3 x      CL#3 y

 O #1 x  -13.026091
 O #1 y    0.368809    9.425948
 H #2 x   -1.229172    1.339426    1.028383
 H #2 y    1.332669    0.846967   -1.796753   -1.076029
 CL#3 x   14.255263   -1.708235    0.200789    0.464084  -14.456052
 CL#3 y   -1.701478  -10.272915    0.457327    0.229062    1.244151   10.043852


           Symmetry 2

           O #1 z      H #2 z      CL#3 z

 O #1 z   11.703030
 H #2 z   -1.960586    2.159716
 CL#3 z   -9.742444   -0.199130    9.941574




           O #1 x      O #1 y      O #1 z      H #2 x      H #2 y      H #2 z

 O #1 x  -13.026091
 O #1 y    0.368809    9.425948
 O #1 z    0.000000    0.000000   11.703030

 H #2 x   -1.229172    1.339426    0.000000    1.028383
 H #2 y    1.332669    0.846967    0.000000   -1.796753   -1.076029
 H #2 z    0.000000    0.000000   -1.960586    0.000000    0.000000    2.159716

 CL#3 x   14.255263   -1.708235    0.000000    0.200789    0.464084    0.000000
 CL#3 y   -1.701478  -10.272915    0.000000    0.457327    0.229062    0.000000
 CL#3 z    0.000000    0.000000   -9.742444    0.000000    0.000000   -0.199130


           CL#3 x      CL#3 y      CL#3 z

 CL#3 x  -14.456052
 CL#3 y    1.244151   10.043852
 CL#3 z    0.000000    0.000000    9.941574




                Highest order reorthonormalization Hessian
                ------------------------------------------


           Symmetry 1

           O #1 x      O #1 y      H #2 x      H #2 y      CL#3 x      CL#3 y

 O #1 x    0.000000
 O #1 y    0.000000    0.000000
 H #2 x    0.000000    0.000000    0.000000
 H #2 y    0.000000    0.000000    0.000000    0.000000
 CL#3 x    0.000000    0.000000    0.000000    0.000000    0.000000
 CL#3 y    0.000000    0.000000    0.000000    0.000000    0.000000    0.000000


           Symmetry 2

           O #1 z      H #2 z      CL#3 z

 O #1 z    0.000000
 H #2 z    0.000000    0.000000
 CL#3 z    0.000000    0.000000    0.000000




           O #1 x      O #1 y      O #1 z      H #2 x      H #2 y      H #2 z


           CL#3 x      CL#3 y      CL#3 z




                Electronic contributions to dipole moment
                -----------------------------------------

                               au             Debye

                    x      1.86035546      4.72855273
                    y      0.55186704      1.40270636

  Conversion factor used: 1 a.u. =   2.54174691 Debye 



   Electronic contributions to static part of dipole moment derivatives
   --------------------------------------------------------------------


                     Total dipole moment derivatives
                     -------------------------------


           Symmetry 1
                              Ex             Ey

               O #1 x    -8.74076017    -0.08457194
               O #1 y    -0.31541162    -8.76699027
               H #2 x    -0.50298511     0.07533968
               H #2 y     0.35997220    -0.41152450
               CL#3 x   -16.75625472     0.00923227
               CL#3 y    -0.04456058   -16.82148523

           Symmetry 2
                              Ez

               O #1 z    -8.41040931
               H #2 z    -0.72986708
               CL#3 z   -16.85972361



                       Ex          Ey          Ez

      O #1    x   -8.740760   -0.084572    0.000000
      O #1    y   -0.315412   -8.766990    0.000000
      O #1    z    0.000000    0.000000   -8.410409

      H #2    x   -0.502985    0.075340    0.000000
      H #2    y    0.359972   -0.411524    0.000000
      H #2    z    0.000000    0.000000   -0.729867

      CL#3    x  -16.756255    0.009232    0.000000
      CL#3    y   -0.044561  -16.821485    0.000000
      CL#3    z    0.000000    0.000000  -16.859724

 Evaluation of 1e integral derivatives required    1.58 seconds.
 Evaluation of 2el integral derivatives

                      Two-electron integral gradient
                      ------------------------------

                         O #1 x    11.6170853595
                         O #1 y    -2.3657162510
                         H #2 x     1.2690208016
                         H #2 y     2.0333596350
                         CL#3 x   -12.8861061611
                         CL#3 y     0.3323566160


 O #1      11.6170853595           -2.3657162510            0.0000000000
 H #2       1.2690208016            2.0333596350            0.0000000000
 CL#3     -12.8861061611            0.3323566160            0.0000000000


 Evaluation of 2e integral derivatives required  308.00 seconds.

                            Molecular gradient
                            ------------------

                         O #1 x    -0.0656058282
                         O #1 y     0.2048380926
                         H #2 x    -0.0926291029
                         H #2 y    -0.2077292609
                         CL#3 x     0.1582349311
                         CL#3 y     0.0028911683


 O #1      -0.0656058282            0.2048380926            0.0000000000
 H #2      -0.0926291029           -0.2077292609            0.0000000000
 CL#3       0.1582349311            0.0028911683            0.0000000000


  Molecular gradient norm 0.351E+00

                            Molecular hessian
                            -----------------


           Symmetry 1

           O #1 x      O #1 y      H #2 x      H #2 y      CL#3 x      CL#3 y

 O #1 x    2.065802
 O #1 y    0.974775    3.369266
 H #2 x   -0.319139   -1.615089    0.350493
 H #2 y   -1.373888   -4.060023    1.376133    4.023279
 CL#3 x   -1.746662    0.734897   -0.023447   -0.003794    1.770110
 CL#3 y    0.399112    0.690757   -0.008033    0.014481   -0.391079   -0.705238


           Symmetry 2

           O #1 z      H #2 z      CL#3 z

 O #1 z    0.117789
 H #2 z   -0.013392    0.023038
 CL#3 z   -0.104397   -0.003148    0.107545




           O #1 x      O #1 y      O #1 z      H #2 x      H #2 y      H #2 z

 O #1 x    2.065802
 O #1 y    0.974775    3.369266
 O #1 z    0.000000    0.000000    0.117789

 H #2 x   -0.319139   -1.615089    0.000000    0.350493
 H #2 y   -1.373888   -4.060023    0.000000    1.376133    4.023279
 H #2 z    0.000000    0.000000   -0.013392    0.000000    0.000000    0.023038

 CL#3 x   -1.746662    0.734897    0.000000   -0.023447   -0.003794    0.000000
 CL#3 y    0.399112    0.690757    0.000000   -0.008033    0.014481    0.000000
 CL#3 z    0.000000    0.000000   -0.104397    0.000000    0.000000   -0.003148


           CL#3 x      CL#3 y      CL#3 z

 CL#3 x    1.770110
 CL#3 y   -0.391079   -0.705238
 CL#3 z    0.000000    0.000000    0.107545




                           Total dipole moment
                           -------------------

                               au             Debye

                    x     -0.21207327     -0.53903659
                    y     -0.64798221     -1.64700677

  Conversion factor used: 1 a.u. =   2.54174691 Debye 



                     Total dipole moment derivatives
                     -------------------------------


           Symmetry 1
                              Ex             Ey

               O #1 x    -0.05789193     0.14824442
               O #1 y     0.15157914     0.03792321
               H #2 x     0.09779019    -0.12898434
               H #2 y    -0.21229307    -0.06141089
               CL#3 x    -0.03989822    -0.01925981
               CL#3 y     0.06071323     0.02348753

           Symmetry 2
                              Ez

               O #1 z    -0.25474131
               H #2 z     0.24361879
               CL#3 z     0.01112236



                       Ex          Ey          Ez

      O #1    x   -0.057892    0.148244    0.000000
      O #1    y    0.151579    0.037923    0.000000
      O #1    z    0.000000    0.000000   -0.254741

      H #2    x    0.097790   -0.128984    0.000000
      H #2    y   -0.212293   -0.061411    0.000000
      H #2    z    0.000000    0.000000    0.243619

      CL#3    x   -0.039898   -0.019260    0.000000
      CL#3    y    0.060713    0.023488    0.000000
      CL#3    z    0.000000    0.000000    0.011122

  Molecular gradient does not satisfy rotational invariance condition.
   rotational invariance in yz-plane :        0.0000E+00
   rotational invariance in xz-plane :        0.0000E+00
   rotational invariance in xy-plane :        -.1162E-01
 @CHECKOUT-I, Total execution time (CPU/WALL):      309.64/      43.93 seconds.
--executable xvdint finished with status     0 in       44.03 seconds (walltime).
 --invoking executable--
/home/asmola/.local/bin/xjoda
  @GTFLGS-I, Hessian will be transformed to curvilinear coordinates.
  @GTFLGS-I, Hessian will be transformed to curvilinear coordinates.
  igrd and ihes are                      0                     1
  gradient from JOBARC 
  -0.065605828204092   0.204838092594538   0.000000000000000
  -0.092629102876210  -0.207729260894622   0.000000000000000
   0.158234931080295   0.002891168300065   0.000000000000000
 
  @PROJFCM-I, Projecting force constant matrix onto totally symmetric subspace.
  Largest difference between matrix elements of symmetrized
  and unsymmetrized FCM :     0.0000000000E+00.
 
  Summary of diagonal Born-Oppenheimer correction at the correlated level
  The total diagonal Born-Oppenheimer correction (DBOC) is:      0.0087425584 a.u.
  The total diagonal Born-Oppenheimer correction (DBOC) is:       1918.769780 cm-1
  The total diagonal Born-Oppenheimer correction (DBOC) is:            22.954 kJ/mole
  hellooooooo 
  readis is  F
 
 @CHECKOUT-I, Total execution time (CPU/WALL):        0.01/       0.05 seconds.
--executable xjoda finished with status     0 in        0.08 seconds (walltime).
  The final electronic energy is      -535.681447952888789 a.u. 
  This computation required                         2871.07 seconds (walltime).
