 --invoking executable--
/home/asmola/.local/bin/xjoda


   *************************************************************************
         <<<     CCCCCC     CCCCCC   |||     CCCCCC     CCCCCC   >>>
       <<<      CCC        CCC       |||    CCC        CCC         >>>
      <<<      CCC        CCC        |||   CCC        CCC            >>>
    <<<        CCC        CCC        |||   CCC        CCC              >>>
      <<<      CCC        CCC        |||   CCC        CCC            >>>
       <<<      CCC        CCC       |||    CCC        CCC         >>>
         <<<     CCCCCC     CCCCCC   |||     CCCCCC     CCCCCC   >>>
   *************************************************************************

     ****************************************************************
     * CFOUR Coupled-Cluster techniques for Computational Chemistry *
     ****************************************************************
 

   Department of Chemistry                Institut fuer Physikalische Chemie
   University of Florida                  Universitaet Mainz
   Gainesville, FL 32611, USA             D-55099 Mainz, Germany

   Department of Chemistry                Fakultaet fuer Chemie und Biowiss.
   Johns Hopkins University               Karlsruher Institut fuer Technologie
   Baltimore, MD 21218, USA               D-76131 Karlsruhe, Germany

   Department of Chemistry                Department of Physical Chemistry
   Southern Methodist University          Eotvos Lorand University
   Dallas, TX 75275, USA                  H-1053 Budapest, Hungary

 
                       Version 2.1
 
                     vincent.theory.phys.ucl.ac.uk                     
                     Wed 29 Jan 14:47:16 GMT 2025                      
                     integer*8 version is running
 
********************************************************************************
*                          Input from ZMAT file                                *
********************************************************************************
Hypochlorous acid DBOC calculation                                              
O                                                                               
H 1 ROH                                                                         
CL 1 ROCL 2 A                                                                   
                                                                                
ROH=0.7000000000000001                                                          
ROCL=1.683                                                                      
A=107.0                                                                         
                                                                                
                                                                                
*CFOUR(CALC=CCSD,BASIS=AUG-PCVTZ,SCF_CONV=10                                    
CC_CONV=10,DBOC=ON,MEMORY=500000000)                                            
                                                                                
%isotopes                                                                       
16                                                                              
1                                                                               
37                                                                              
********************************************************************************
  @GTFLGS-I, Hessian will be transformed to curvilinear coordinates.
    -------------------------------------------------------------------
                    CFOUR Control Parameters 
    -------------------------------------------------------------------
        External           Internal           Value            Units
          Name               Name
    -------------------------------------------------------------------
       ABCDTYPE             IABCDT         STANDARD    [  0]    ***   
       ANHARMONIC           IANHAR         OFF         [  0]    ***   
       ANH_ALGORIT          IANALG         STANDARD    [  0]    ***   
       ANH_DERIVAT          IANDER         SECOND      [  1]    ***   
       ANH_MODE             ANHMOD         VIBRATION   [  0]    ***   
       ANH_STEPSIZ          ICUBST             50000          x 10-6  
       ANH_SYMMETR          IANHSM         ABELIAN     [  0]    ***   
       AO_LADDERS           IAOLAD         SINGLEPASS  [  1]    ***   
       AV_SCF               IAVSCF         OFF         [  0]    ***   
       BASIS                IBASIS         AUG-PCVTZ   [ 51]    ***   
       BOTHVECTORS          BOTHVC         OFF         [  0]    ***   
       BOX_POTENT           IPIAB          OFF         [  0]    ***   
       BREIT                IBREIT         OFF         [  0]    ***   
       BRUCK_CONV           IBRTOL          10D-  4             ***   
       BRUECKNER            IBRKNR         OFF         [  0]    ***   
       BUFFERSIZE           IBUFFS              4096            ***   
       CACHE_RECS           ICHREC             10               ***   
       CALCLEVEL            ICLLVL         CCSD        [ 10]    ***   
       CCORBOPT             ICCORB         OFF         [  0]  x 0.01  
       CC_CONV              ICCCNV          10D- 10             ***   
       CC_EXPORDER          ICCEOR              5               ***   
       CC_EXTRAPOL          ICCEXT         DIIS        [  1]    ***   
       CC_GUESS             ICCGES         MP2         [  0]    ***   
       CC_MAXCYC            ICCCYC            100              cycles 
       CC_PROGRAM           ICCPRO         VCC         [  0]    ***   
       CHARGE               ICHRGE              0               ***   
       CHOLESKY             ICHOLE         OFF         [  0]    ***   
       CIS_CONV             ICISTL              5               ***   
       COMM_SIZE            IPSIZE            ***               ***   
       CONSTANT             ICONST         OLD         [  1]    ***   
       CONTINUUM            ICONTU         NONE        [  0]    ***   
       CONTRACTION          ICNTYP         GENERAL     [  1]    ***   
       COORDINATES          ICOORD         INTERNAL    [  0]    ***   
       CPHF_CONVER          ICPHFT          10D- 16             ***   
       CPHF_MAXCYC          ICPHFC             64              cycles 
       CUBIC                ICUBIC         OFF         [  0]    ***   
       CURVILINEAR          ICURVY         ON          [  1]    ***   
       DBOC                 IDBOC          ON          [  1]    ***   
       DCT                  IDCT           OFF         [  0]    ***   
       DERIV_LEV            IDRLVL         SECOND      [  2]    ***   
       DEVMEM_SIZE          IDVMEM          50000000           MByte  
       DIAG_MRCC            IEOMST          10D-  0             ***   
       DIFF_TYPE            IDIFTY         RELAXED     [  0]    ***   
       DIRECT               IDIRCT         OFF         [  0]    ***   
       DROPMO               IDRPMO      NONE         
       ECP                  IECP           OFF         [  0]    ***   
       EIGENVECTOR          IVEC                1               ***   
       EL_ANHARM            IELANH         OFF         [  0]    ***   
       EOMFOLLOW            IEOMSR         ENERGY      [  0]    ***   
       EOMIP                IEOMIP         OFF         [  0]    ***   
       EOMLEVEL             HBARFM         SAME        [  0]    ***   
       EOM_MRCC             IMRCCE         NEW         [  1]    ***   
       EOM_NONIT            EOMNON         OFF         [  0]    ***   
       EOM_NSING            IEOMSI          10D-  0             ***   
       EOM_NSTATES          IMRCCD         DAVIDSON    [  0]    ***   
       EOM_NTRIP            IEOMTR          10D-  0             ***   
       EOM_ORDER            IEXORD         ENERGY      [  0]    ***   
       EOM_PROPSTA          IEOMST              0               ***   
       ESTATE_CONV          IEXTOL          10D-  5             ***   
       ESTATE_DIAG          IEXDIG         ITERATIVE   [  0]    ***   
       ESTATE_LOCK          IESLOC         ON          [  1]    ***   
       ESTATE_MAXC          IEXMXC             40               ***   
       ESTATE_PROP          IEXPRP         OFF         [  0]    ***   
       EVAL_HESS            IRECAL              0            # of cyc.
       EXCITATION           IEXCIT              0               ***   
       EXCITE               IEXCIT         NONE        [  0]    ***   
       EXTERN_POT           IEXPOT         OFF         [  0]    ***   
       FCGRADNEW            IFCGNW         OFF         [  0]    ***   
       FC_FIELD             IFINFC              0             x 10-6  
       FD_CALTYPE           IFDCAL         GRADONLY    [  0]    ***   
       FD_PROJECT           IFDPRJ         OFF         [  1]    ***   
       FD_STEPSIZE          IDISFD              0            10-4 bohr
       FD_USEGROUP          IFDGRP         FULL        [  0]    ***   
       FILE_RECSIZ          IFLREC              4096           words  
       FINITE_PERT          IFIPER              0             x 10-6  
       FIXGEOM              IFIXGM         OFF         [  0]    ***   
       FOCK                 IFOCK          AO          [  1]    ***   
       FREQ_ALGORI          IVIALG         STANDARD    [  0]    ***   
       FROZEN_CORE          IFROCO         OFF         [  0]    ***   
       GAMMA_ABCD           IGABCD         STORE       [  0]    ***   
       GAMMA_ABCI           IGABCI         STORE       [  0]    ***   
       GENBAS_1             IGNBS1              0               ***   
       GENBAS_2             IGNBS2              0               ***   
       GENBAS_3             IGNBS3              0               ***   
       GENBAS_4             IGNBS4              0               ***   
       GEO_CONV             ICONTL              5              H/bohr 
       GEO_MAXCYC           IOPTCY             50               ***   
       GEO_MAXSTEP          IMXSTP            300            millibohr
       GEO_METHOD           INR            SINGLE_POINT[  5]    ***   
       GIAO                 IGIAO          OFF         [  1]    ***   
       GIMIC                IGIMIC         OFF         [  0]    ***   
       GRID                 IGRID          OFF         [  0]    ***   
       GRID_ALGO            IGALGO         SERIAL      [  0]    ***   
       GUESS                IGUESS         MOREAD      [  0]    ***   
       HBAR                 IHBAR          OFF         [  0]    ***   
       HESS_TYPE            IHESTP         SCF         [  0]    ***   
       HF2_FILE             IHF2Fl         USE         [  1]    ***   
       HFSTABILITY          ISTABL         OFF         [  0]    ***   
       INCORE               INCORE         OFF         [  0]    ***   
       INPUT_MRCC           IMRCC          ON          [  1]    ***   
       INTEGRALS            INTTYP         VMOL        [  1]    ***   
       JODA_PRINT           IJPRNT              0               ***   
       KEYWORD_OUT          IDMPKW         NO          [  0]    ***   
       LINDEP_TOL           ILINDP              8               ***   
       LINEQ_CONV           IZTACN          10D-  7           cycles  
       LINEQ_EXPOR          ILMAXD              5               ***   
       LINEQ_MAXCY          ILMAXC            100               ***   
       LINEQ_TYPE           ILTYPE         DIIS        [  1]    ***   
       LOCK_ORBOCC          ILOCOC         OFF         [  0]    ***   
       MEMORY_SIZE          IMEMSZ         500000000           words  
       MEM_UNIT             IMEMU          INTEGERWORDS[  0]    ***   
       MRCC                 IMRCCC         OFF         [  0]    ***   
       MULTIPLICTY          IMULTP              1               ***   
       NACOUPLING           IVCOUP         OFF         [  0]    ***   
       NEGEVAL              IDIE           ABORT       [  0]    ***   
       NEWNORM              INEWNO         OFF         [  0]    ***   
       NON-HF               INONHF         OFF         [  0]    ***   
       NTOP_TAMP            ITOPT2             15               ***   
       NUC_MODEL            INUCMO         POINT       [  0]    ***   
       OCCUPATION           IOCCU   ESTIMATED BY SCF 
       OPEN-SHELL           IOPEN          SPIN-ORBITAL[  0]    ***   
       OPTVIB               IOPTVB         OFF         [  0]    ***   
       ORBITALS             IORBTP         STANDARD    [  0]    ***   
       PARALLEL             IPARAL         ON          [  1]    ***   
       PARA_INT             IPINTS         ON          [  1]    ***   
       PARA_PRINT           IPPRIN              0               ***   
       PERT_ORB             IPTORB         STANDARD    [  0]    ***   
       POINTS               IGRDFD              0               ***   
       PRINT                IPRNT               0               ***   
       PROPS                IPROPS         OFF         [  0]    ***   
       PROP_INTEGR          IINTYP         INTERNAL    [  0]    ***   
       PSI                  IPSI           OFF         [  0]    ***   
       QC_ALG               IQCALG         FLM         [  0]    ***   
       QC_LINALG            IQCLIN         TRIDIAG     [  2]    ***   
       QC_MAXCYC            IQCMAX          10D-100           cycles  
       QC_MAXSCFCY          IQCMSC          10D- 15           cycles  
       QC_RTRUST            IQCRTR          10D-  0           x 10-3  
       QC_SKIPSCF           IQCSKI         OFF         [  0]    ***   
       QC_START             IQCSTA          10D-  1             ***   
       QRHFGUESS            IQGUES         OFF         [  0]    ***   
       QUARTIC              IQUART         OFF         [  0]    ***   
       RAMAN_INT            IRAMIN         OFF         [  0]    ***   
       RAMAN_ORB            IRAMRE         UNRELAXED   [  0]    ***   
       RDO                  IRDOFM         ON          [  1]    ***   
       REDUCE_REPR          REDREP         Ir          [  0]    ***   
       REFERENCE            IREFNC         RHF         [  0]    ***   
       RELATIVIST           IRELAT         OFF         [  0]    ***   
       RELAX_DENS           IRDENS         ON          [  1]    ***   
       RESET_FLAGS          IRESET         OFF         [  0]    ***   
       RESTART_CC           ICCRES         OFF         [  0]    ***   
       ROT_EVEC             ROTVEC              0               ***   
       SAVE_INTS            ISVINT         OFF         [  0]    ***   
       SCALE_ON             ISTCRT              0               ***   
       SCF_CONV             ISCFCV          10D- 10             ***   
       SCF_DAMPING          IDAMP               0             x 10-3  
       SCF_EXPORDE          IRPPOR              6               ***   
       SCF_EXPSTAR          IRPPLS              8               ***   
       SCF_EXTRAPO          IRPP           ON          [  1]    ***   
       SCF_MAXCYC           ISCFCY            150              cycles 
       SCF_NOSTOP           ISCFST         OFF         [  0]    ***   
       SCF_PRINT            ISCFPR              0               ***   
       SCF_PROG             ISCFPR         SCF         [  0]    ***   
       SD_FIELD             IFINSD              0             x 10-6  
       SOPERT               IPERSO         OFF         [  0]    ***   
       SPHERICAL            IDFGHI         ON          [  1]    ***   
       SPINORBIT            ISOCAL         OFF         [  0]    ***   
       SPINROTATIO          ISRCON         OFF         [  0]    ***   
       SPIN_FLIP            ISPFLP         OFF         [  0]    ***   
       SPIN_ORBIT           ISPORB         OFF         [  0]    ***   
       SPIN_SCAL            ISCSMP         OFF         [  0]    ***   
       STEEPSCALE           ISTPSC              1000          x 10-3  
       SUBGROUP             ISUBGP         DEFAULT     [  0]    ***   
       SUBGRPAXIS           ISBXYZ         X           [  0]    ***   
       SYMMETRY             ISYM           ON          [  0]    ***   
       SYM_CHECK            ISYMCK         OVERRIDE    [  1]    ***   
       T3_EXTRAPOL          IT3EXT         OFF         [  0]    ***   
       T4_EXTRAPOL          IT4EXP         OFF         [  0]    ***   
       TAMP_SUM             IEVERY              5               ***   
       TESTSUITE            ITESTS         OFF         [  0]    ***   
       THERMOCH             ITHERM         OFF         [  0]    ***   
       TOL_CHOLESK          ITOLCH          10D-  4             ***   
       TRANGRAD             IRESRM         OFF         [  0]    ***   
       TRANS_INV            ITRAIN         IGNORE      [  1]    ***   
       TREAT_PERT           ITREAT         SIMULTANEOUS[  0]    ***   
       TRIP_ALGORI          ITRALG         NORMAL      [  0]    ***   
       UIJ_THRESHO          IUIJTH              1               ***   
       UNITS                IUNITS         ANGSTROM    [  0]    ***   
       UNOS                 IUNOS          OFF         [  0]    ***   
       UPDATE_HESS          IHUPDT         ON          [  1]    ***   
       VIBPHASE             ISETPH         STANDARD    [  0]    ***   
       VIBRATION            IVIB           ANALYTIC    [  1]    ***   
       VIB_ALGORIT          IGEALG         STANDARD    [  0]    ***   
       VNATORB              IVNORB         OFF         [  0]    ***   
       VTRAN                IVTRAN         FULL/PARTIAL[  0]    ***   
       XFIELD               IXEFLD              0             x 10-6  
       XFORM_TOL            IXFTOL          10D- 11             ***   
       YFIELD               IYEFLD              0             x 10-6  
       ZFIELD               IZEFLD              0             x 10-6  
       ZSCALE_EXP           IZEXPS         OFF         [  0]    ***   
    -------------------------------------------------------------------
   3 entries found in Z-matrix 
   Job Title : Hypochlorous acid DBOC calculation                                              
   There are  3 unique internal coordinates.
   Of these,  0 will be optimized.
   User supplied Z-matrix: 
--------------------------------------------------------------------------------
       SYMBOL    BOND      LENGTH    ANGLE     ANGLE     DIHED     ANGLE
                  TO      (ANGST)    WRT      (DEG)      WRT      (DEG)
--------------------------------------------------------------------------------
        O    
        H          1         ROH  
        CL         1         ROCL       2        A    
                  *Initial values for internal coordinates* 
                      Name             Value
                        ROH             0.7000000000
                        ROCL            1.6830000000
                        A             107.0000000000
--------------------------------------------------------------------------------
  read isotopes from ZMAT file 
   Rotational constants (in cm-1): 
          0.4965798680             0.5027702723            40.3310644783
   Rotational constants (in MHz): 
      14887.0920084090         15072.6756869002       1209095.0647607218
********************************************************************************
   The full molecular point group is C s .
   The largest Abelian subgroup of the full molecular point group is C s .
   The computational point group is C s .
********************************************************************************
--------------------------------------------------------------------------------
   Analysis of internal coordinates specified by Z-matrix 
--------------------------------------------------------------------------------
   *The nuclear repulsion energy is   53.301147383371827 a.u.
   *There are   3 degrees of freedom within the tot. symm. molecular subspace.
   *Z-matrix requests optimization of   0 coordinates.
   *The optimization is constrained.
   *The following   3 parameters can have non-zero 
    derivatives within the totally symmetric subspace:
             A    [ 3]  ROCL [ 2]  ROH  [ 1]
   *The following   0 parameters are to be optimized:

   *The following coordinates must be varied in an  unconstrained optimization.
             A    [ 3]  ROCL [ 2]  ROH  [ 1]
--------------------------------------------------------------------------------


 ----------------------------------------------------------------
         Coordinates used in calculation (QCOMP) 
 ----------------------------------------------------------------
 Z-matrix   Atomic            Coordinates (in bohr)
  Symbol    Number           X              Y              Z
 ----------------------------------------------------------------
     O         8        -2.16972579     0.08351877     0.00000000
     H         1        -2.59123259    -1.17033709     0.00000000
     CL       17         1.00947319    -0.00423040     0.00000000
 ----------------------------------------------------------------
 
   Interatomic distance matrix (Angstroms) 
 
                 O             H             CL   
                [ 1]        [ 2]        [ 3]
  O    [ 1]     0.00000
  H    [ 2]     0.70000     0.00000
  CL   [ 3]     1.68300     2.00284     0.00000
 rotcon2
   Rotational constants (in cm-1): 
         40.3310644783             0.5027702723             0.4965798680
   Rotational constants (in MHz): 
    1209095.0647607318         15072.6756869002         14887.0920084090
  ECPDATA file not present.   Using default ECPDATA. 
  @GTFLGS-I, Hessian will be transformed to curvilinear coordinates.
  There are  157 basis functions.
 @CHECKOUT-I, Total execution time (CPU/WALL):        0.24/       0.30 seconds.
--executable xjoda finished with status     0 in        0.35 seconds (walltime).
 --invoking executable--
/home/asmola/.local/bin/xvmol
 SERIAL VERSION OF MOLECULE STARTED
********************************************************************************
                    INPUT FROM MOL FILE
********************************************************************************
INTGRL        1    0    1    0    0    0    0    0    0                         
         *** CFOUR Program System (Release V0.1) ***                            
Hypochlorous acid DBOC calculation                                              
    3    1 Z          0.10E-08              0    0                              
   9999.00      3.00                                                            
          8.00000000    1    4    1    1    1    1                              
O #1  -2.169725786544851   0.083518773592128   0.000000000000000                
   13    7                                                                      
   15330.0000000000       5.080000000000000E-004 -1.150000000000000E-004        
  0.000000000000000E+000  0.000000000000000E+000  0.000000000000000E+000        
  0.000000000000000E+000  0.000000000000000E+000                                
   2299.00000000000       3.929000000000000E-003 -8.950000000000000E-004        
  0.000000000000000E+000  0.000000000000000E+000  0.000000000000000E+000        
  0.000000000000000E+000  0.000000000000000E+000                                
   522.400000000000       2.024300000000000E-002 -4.636000000000000E-003        
  0.000000000000000E+000  0.000000000000000E+000  0.000000000000000E+000        
  0.000000000000000E+000  0.000000000000000E+000                                
   147.300000000000       7.918100000000000E-002 -1.872400000000000E-002        
  0.000000000000000E+000  0.000000000000000E+000  0.000000000000000E+000        
  0.000000000000000E+000  0.000000000000000E+000                                
   47.5500000000000       0.230687000000000      -5.846300000000000E-002        
  0.000000000000000E+000  0.000000000000000E+000  0.000000000000000E+000        
  0.000000000000000E+000  0.000000000000000E+000                                
   16.7600000000000       0.433118000000000      -0.136463000000000             
  0.000000000000000E+000  0.000000000000000E+000  0.000000000000000E+000        
  0.000000000000000E+000  0.000000000000000E+000                                
   6.20700000000000       0.350260000000000      -0.175740000000000             
  0.000000000000000E+000  0.000000000000000E+000  0.000000000000000E+000        
  0.000000000000000E+000  0.000000000000000E+000                                
   1.75200000000000       4.272800000000000E-002  0.160934000000000             
   1.00000000000000       0.000000000000000E+000  0.000000000000000E+000        
  0.000000000000000E+000  0.000000000000000E+000                                
  0.688200000000000      -8.154000000000000E-003  0.603418000000000             
  0.000000000000000E+000  0.000000000000000E+000  0.000000000000000E+000        
  0.000000000000000E+000  0.000000000000000E+000                                
  0.238400000000000       2.381000000000000E-003  0.378765000000000             
  0.000000000000000E+000   1.00000000000000       0.000000000000000E+000        
  0.000000000000000E+000  0.000000000000000E+000                                
   7.84500000000000       0.000000000000000E+000  0.000000000000000E+000        
  0.000000000000000E+000  0.000000000000000E+000   1.00000000000000             
  0.000000000000000E+000  0.000000000000000E+000                                
   21.0320000000000       0.000000000000000E+000  0.000000000000000E+000        
  0.000000000000000E+000  0.000000000000000E+000  0.000000000000000E+000        
   1.00000000000000       0.000000000000000E+000                                
  7.376000000000001E-002  0.000000000000000E+000  0.000000000000000E+000        
  0.000000000000000E+000  0.000000000000000E+000  0.000000000000000E+000        
  0.000000000000000E+000   1.00000000000000                                     
    8    6                                                                      
   34.4600000000000       1.592800000000000E-002  0.000000000000000E+000        
  0.000000000000000E+000  0.000000000000000E+000  0.000000000000000E+000        
  0.000000000000000E+000                                                        
   7.74900000000000       9.974000000000000E-002  0.000000000000000E+000        
  0.000000000000000E+000  0.000000000000000E+000  0.000000000000000E+000        
  0.000000000000000E+000                                                        
   2.28000000000000       0.310492000000000       0.000000000000000E+000        
  0.000000000000000E+000  0.000000000000000E+000  0.000000000000000E+000        
  0.000000000000000E+000                                                        
  0.715600000000000       0.491026000000000        1.00000000000000             
  0.000000000000000E+000  0.000000000000000E+000  0.000000000000000E+000        
  0.000000000000000E+000                                                        
  0.214000000000000       0.336337000000000       0.000000000000000E+000        
   1.00000000000000       0.000000000000000E+000  0.000000000000000E+000        
  0.000000000000000E+000                                                        
   15.1590000000000       0.000000000000000E+000  0.000000000000000E+000        
  0.000000000000000E+000   1.00000000000000       0.000000000000000E+000        
  0.000000000000000E+000                                                        
   57.4370000000000       0.000000000000000E+000  0.000000000000000E+000        
  0.000000000000000E+000  0.000000000000000E+000   1.00000000000000             
  0.000000000000000E+000                                                        
  5.974000000000000E-002  0.000000000000000E+000  0.000000000000000E+000        
  0.000000000000000E+000  0.000000000000000E+000  0.000000000000000E+000        
   1.00000000000000                                                             
    4    4                                                                      
   2.31400000000000        1.00000000000000       0.000000000000000E+000        
  0.000000000000000E+000  0.000000000000000E+000                                
  0.645000000000000       0.000000000000000E+000   1.00000000000000             
  0.000000000000000E+000  0.000000000000000E+000                                
   15.8580000000000       0.000000000000000E+000  0.000000000000000E+000        
   1.00000000000000       0.000000000000000E+000                                
  0.214000000000000       0.000000000000000E+000  0.000000000000000E+000        
  0.000000000000000E+000   1.00000000000000                                     
    2    2                                                                      
   1.42800000000000        1.00000000000000       0.000000000000000E+000        
  0.500000000000000       0.000000000000000E+000   1.00000000000000             
          1.00000000    1    3    1    1    1                                   
H #2  -2.591232587468499  -1.170337085349922   0.000000000000000                
    6    4                                                                      
   33.8700000000000       6.068000000000000E-003  0.000000000000000E+000        
  0.000000000000000E+000  0.000000000000000E+000                                
   5.09500000000000       4.530800000000000E-002  0.000000000000000E+000        
  0.000000000000000E+000  0.000000000000000E+000                                
   1.15900000000000       0.202822000000000       0.000000000000000E+000        
  0.000000000000000E+000  0.000000000000000E+000                                
  0.325800000000000       0.503903000000000        1.00000000000000             
  0.000000000000000E+000  0.000000000000000E+000                                
  0.102700000000000       0.383421000000000       0.000000000000000E+000        
   1.00000000000000       0.000000000000000E+000                                
  2.526000000000000E-002  0.000000000000000E+000  0.000000000000000E+000        
  0.000000000000000E+000   1.00000000000000                                     
    3    3                                                                      
   1.40700000000000        1.00000000000000       0.000000000000000E+000        
  0.000000000000000E+000                                                        
  0.388000000000000       0.000000000000000E+000   1.00000000000000             
  0.000000000000000E+000                                                        
  0.102000000000000       0.000000000000000E+000  0.000000000000000E+000        
   1.00000000000000                                                             
    2    2                                                                      
   1.05700000000000        1.00000000000000       0.000000000000000E+000        
  0.247000000000000       0.000000000000000E+000   1.00000000000000             
         17.00000000    1    4    1    1    1    1                              
CL#3   1.009473194339467  -0.004230402303749   0.000000000000000                
   18    8                                                                      
   456100.000000000       4.930000000000000E-005 -1.380000000000000E-005        
  4.200000000000000E-006  0.000000000000000E+000  0.000000000000000E+000        
  0.000000000000000E+000  0.000000000000000E+000  0.000000000000000E+000        
   68330.0000000000       3.830000000000000E-004 -1.073000000000000E-004        
  3.240000000000000E-005  0.000000000000000E+000  0.000000000000000E+000        
  0.000000000000000E+000  0.000000000000000E+000  0.000000000000000E+000        
   15550.0000000000       2.008500000000000E-003 -5.651000000000000E-004        
  1.711000000000000E-004  0.000000000000000E+000  0.000000000000000E+000        
  0.000000000000000E+000  0.000000000000000E+000  0.000000000000000E+000        
   4405.00000000000       8.385600000000000E-003 -2.361400000000000E-003        
  7.142000000000000E-004  0.000000000000000E+000  0.000000000000000E+000        
  0.000000000000000E+000  0.000000000000000E+000  0.000000000000000E+000        
   1439.00000000000       2.947030000000000E-002 -8.458900000000000E-003        
  2.567000000000000E-003  0.000000000000000E+000  0.000000000000000E+000        
  0.000000000000000E+000  0.000000000000000E+000  0.000000000000000E+000        
   520.400000000000       8.783249999999999E-002 -2.596380000000000E-002        
  7.885500000000000E-003  0.000000000000000E+000  0.000000000000000E+000        
  0.000000000000000E+000  0.000000000000000E+000  0.000000000000000E+000        
   203.100000000000       0.211473000000000      -6.863619999999999E-002        
  2.108670000000000E-002  0.000000000000000E+000  0.000000000000000E+000        
  0.000000000000000E+000  0.000000000000000E+000  0.000000000000000E+000        
   83.9600000000000       0.365364000000000      -0.141874000000000             
  4.422640000000000E-002  0.000000000000000E+000  0.000000000000000E+000        
  0.000000000000000E+000  0.000000000000000E+000  0.000000000000000E+000        
   36.2000000000000       0.340884000000000      -0.199319000000000             
  6.516700000000000E-002  0.000000000000000E+000  0.000000000000000E+000        
  0.000000000000000E+000  0.000000000000000E+000  0.000000000000000E+000        
   15.8300000000000       0.102133000000000      -1.956620000000000E-002        
  6.030100000000000E-003  0.000000000000000E+000  0.000000000000000E+000        
  0.000000000000000E+000  0.000000000000000E+000  0.000000000000000E+000        
   6.33400000000000       3.116800000000000E-003  0.499741000000000             
 -0.206495000000000       0.000000000000000E+000  0.000000000000000E+000        
  0.000000000000000E+000  0.000000000000000E+000  0.000000000000000E+000        
   2.69400000000000       1.057500000000000E-003  0.563736000000000             
 -0.405871000000000       0.000000000000000E+000  0.000000000000000E+000        
  0.000000000000000E+000  0.000000000000000E+000  0.000000000000000E+000        
  0.976800000000000      -3.780000000000000E-004  7.903250000000001E-002        
  7.595580000000000E-002   1.00000000000000       0.000000000000000E+000        
  0.000000000000000E+000  0.000000000000000E+000  0.000000000000000E+000        
  0.431300000000000       1.561000000000000E-004 -8.350900000000000E-003        
  0.725661000000000       0.000000000000000E+000  0.000000000000000E+000        
  0.000000000000000E+000  0.000000000000000E+000  0.000000000000000E+000        
  0.162500000000000      -5.140000000000000E-005  2.324600000000000E-003        
  0.394423000000000       0.000000000000000E+000   1.00000000000000             
  0.000000000000000E+000  0.000000000000000E+000  0.000000000000000E+000        
   15.0640000000000       0.000000000000000E+000  0.000000000000000E+000        
  0.000000000000000E+000  0.000000000000000E+000  0.000000000000000E+000        
   1.00000000000000       0.000000000000000E+000  0.000000000000000E+000        
   2.87400000000000       0.000000000000000E+000  0.000000000000000E+000        
  0.000000000000000E+000  0.000000000000000E+000  0.000000000000000E+000        
  0.000000000000000E+000   1.00000000000000       0.000000000000000E+000        
  5.910000000000000E-002  0.000000000000000E+000  0.000000000000000E+000        
  0.000000000000000E+000  0.000000000000000E+000  0.000000000000000E+000        
  0.000000000000000E+000  0.000000000000000E+000   1.00000000000000             
   12    7                                                                      
   663.300000000000       2.404500000000000E-003 -6.521000000000000E-004        
  0.000000000000000E+000  0.000000000000000E+000  0.000000000000000E+000        
  0.000000000000000E+000  0.000000000000000E+000                                
   156.800000000000       1.921480000000000E-002 -5.194500000000000E-003        
  0.000000000000000E+000  0.000000000000000E+000  0.000000000000000E+000        
  0.000000000000000E+000  0.000000000000000E+000                                
   49.9800000000000       8.850970000000000E-002 -2.469380000000000E-002        
  0.000000000000000E+000  0.000000000000000E+000  0.000000000000000E+000        
  0.000000000000000E+000  0.000000000000000E+000                                
   18.4200000000000       0.256020000000000      -7.281670000000000E-002        
  0.000000000000000E+000  0.000000000000000E+000  0.000000000000000E+000        
  0.000000000000000E+000  0.000000000000000E+000                                
   7.24000000000000       0.436927000000000      -0.134030000000000             
  0.000000000000000E+000  0.000000000000000E+000  0.000000000000000E+000        
  0.000000000000000E+000  0.000000000000000E+000                                
   2.92200000000000       0.350334000000000      -9.477420000000000E-002        
  0.000000000000000E+000  0.000000000000000E+000  0.000000000000000E+000        
  0.000000000000000E+000  0.000000000000000E+000                                
   1.02200000000000       5.854950000000000E-002  0.262289000000000             
   1.00000000000000       0.000000000000000E+000  0.000000000000000E+000        
  0.000000000000000E+000  0.000000000000000E+000                                
  0.381800000000000      -4.584200000000000E-003  0.564667000000000             
  0.000000000000000E+000  0.000000000000000E+000  0.000000000000000E+000        
  0.000000000000000E+000  0.000000000000000E+000                                
  0.130100000000000       2.269700000000000E-003  0.341250000000000             
  0.000000000000000E+000   1.00000000000000       0.000000000000000E+000        
  0.000000000000000E+000  0.000000000000000E+000                                
   9.48000000000000       0.000000000000000E+000  0.000000000000000E+000        
  0.000000000000000E+000  0.000000000000000E+000   1.00000000000000             
  0.000000000000000E+000  0.000000000000000E+000                                
   3.66800000000000       0.000000000000000E+000  0.000000000000000E+000        
  0.000000000000000E+000  0.000000000000000E+000  0.000000000000000E+000        
   1.00000000000000       0.000000000000000E+000                                
  4.190000000000000E-002  0.000000000000000E+000  0.000000000000000E+000        
  0.000000000000000E+000  0.000000000000000E+000  0.000000000000000E+000        
  0.000000000000000E+000   1.00000000000000                                     
    5    5                                                                      
   1.04600000000000        1.00000000000000       0.000000000000000E+000        
  0.000000000000000E+000  0.000000000000000E+000  0.000000000000000E+000        
  0.344000000000000       0.000000000000000E+000   1.00000000000000             
  0.000000000000000E+000  0.000000000000000E+000  0.000000000000000E+000        
   17.9570000000000       0.000000000000000E+000  0.000000000000000E+000        
   1.00000000000000       0.000000000000000E+000  0.000000000000000E+000        
   5.76000000000000       0.000000000000000E+000  0.000000000000000E+000        
  0.000000000000000E+000   1.00000000000000       0.000000000000000E+000        
  0.135000000000000       0.000000000000000E+000  0.000000000000000E+000        
  0.000000000000000E+000  0.000000000000000E+000   1.00000000000000             
    3    3                                                                      
  0.706000000000000        1.00000000000000       0.000000000000000E+000        
  0.000000000000000E+000                                                        
   11.7790000000000       0.000000000000000E+000   1.00000000000000             
  0.000000000000000E+000                                                        
  0.312000000000000       0.000000000000000E+000  0.000000000000000E+000        
   1.00000000000000                                                             
FINISH                                                                          
 
********************************************************************************
 ONE- AND TWO-ELECTRON INTEGRALS OVER SYMMETRY-ADAPTED AOS ARE CALCULATED.

  SPHERICAL HARMONICS ARE USED.
  
  INTEGRALS LESS THAN  0.10E-13 ARE NEGLECTED.

  NUCLEAR REPULSION ENERGY :   53.3011473834 A.U.
  @MOLECU-I, ONE ELECTRON INTEGRALS (CPU/WALL):        0.05/       0.06 SECONDS.
  @TWOEL-I,   14250102 INTEGRALS OF SYMMETRY TYPE  I I I I
  @TWOEL-I,   13496491 INTEGRALS OF SYMMETRY TYPE  I J I J
  @TWOEL-I,    6957129 INTEGRALS OF SYMMETRY TYPE  I I J J
  @TWOEL-I, TOTAL NUMBER OF 2-E INTEGRALS   34703722.
  @MOLECU-I, TWO ELECTRON INTEGRALS (CPU/WALL):       59.46/       9.91 SECONDS.
 @CHECKOUT-I, Total execution time (CPU/WALL):       59.52/       9.98 seconds.

Running with 14 threads/proc

--executable xvmol finished with status     0 in       10.15 seconds (walltime).
 --invoking executable--
/home/asmola/.local/bin/xvmol2ja
 @GETMEM-I,  Allocated    3814 MB of main memory.
 @CHECKOUT-I, Total execution time (CPU/WALL):        0.11/       0.03 seconds.
--executable xvmol2ja finished with status     0 in        0.07 seconds (walltime).
 --invoking executable--
/home/asmola/.local/bin/xvscf
  There are  157 functions in the AO basis.

  There are 2 irreducible representations.

       Irrep        # of functions
         1                104
         2                 53


  Parameters for SCF calculation: 
        SCF reference function:  RHF  
  Maximum number of iterations:  150
     Full symmetry point group: C s 
     Computational point group: C s 
        Initial density matrix: MOREAD                 
     SCF convergence tolerance: 10**(-10)
  DIIS convergence acceleration:  ON
          Latest start for DIIS:   8
                     DIIS order:   6

  Memory information:    1209746 words required.
  Fock matrices are constructed from AO integral file.
 @GETMEM-I,  Allocated       9 MB of main memory.
  Initialization and symmetry analysis required      0.001 seconds.

  @INITGES-I, Occupancies from core Hamiltonian:

          Alpha population by irrep:  10    3
           Beta population by irrep:  10    3


 total no. of electrons in initial guess :  0.000000000000000E+000
  --------------------------------------------------------------------
  Iteration         Total Energy            Largest Density Difference
  --------------------------------------------------------------------
       0            53.301147383371834              0.0000000000D+00
   current occupation vector 
    10  3
    10  3
       1          -364.050784461601268              0.1326697497D+02
   current occupation vector 
    10  3
    10  3
       2          -335.271712090951951              0.1325343333D+02
   current occupation vector 
    10  3
    10  3
       3          -419.837890227104026              0.1115342906D+02
   current occupation vector 
    10  3
    10  3
       4          -332.006316082527633              0.1169626047D+02
   current occupation vector 
    10  3
    10  3
       5          -419.447944625450361              0.1169618246D+02
   current occupation vector 
    10  3
    10  3
       6          -331.893030594635832              0.1169284245D+02
   current occupation vector 
    10  3
    10  3
       7          -419.435822872911899              0.1169283922D+02
   current occupation vector 
    10  3
    10  3
       8          -331.889509432290822              0.1169247533D+02
   current occupation vector 
    10  3
    10  3
       9          -449.352252719211890              0.1169464303D+02
   current occupation vector 
    10  3
    10  3
      10          -470.966040743831854              0.2379040948D+01
   current occupation vector 
    10  3
    10  3
      11          -486.473053044438757              0.2040264286D+01
   current occupation vector 
    10  3
    10  3
      12          -503.664499005393850              0.1190936417D+01
   current occupation vector 
    10  3
    10  3
      13          -509.559102143964083              0.3878923135D+00
   current occupation vector 
    10  3
    10  3
      14          -522.933716395571992              0.9862198165D+00
   current occupation vector 
    10  3
    10  3
      15          -517.626347135163996              0.4111803713D+01
   current occupation vector 
    10  3
    10  3
      16          -527.680149766717932              0.4070719163D+01
   current occupation vector 
    10  3
    10  3
      17          -534.448708897973461              0.2236778856D+01
   current occupation vector 
    10  3
    10  3
      18          -534.773486577405947              0.5878998806D+00
   current occupation vector 
    10  3
    10  3
      19          -534.801539876740321              0.1098085419D+00
   current occupation vector 
    10  3
    10  3
      20          -534.804219854007101              0.7493624819D-01
   current occupation vector 
    10  3
    10  3
      21          -534.804460278797592              0.1459684024D-01
   current occupation vector 
    10  3
    10  3
      22          -534.804495864102705              0.7430860550D-02
   current occupation vector 
    10  3
    10  3
      23          -534.804499074078763              0.2855629226D-02
   current occupation vector 
    10  3
    10  3
      24          -534.804499459042177              0.7612712252D-03
   current occupation vector 
    10  3
    10  3
      25          -534.804499488149872              0.1867075729D-03
   current occupation vector 
    10  3
    10  3
      26          -534.804499492133573              0.6026356512D-04
   current occupation vector 
    10  3
    10  3
      27          -534.804499492919149              0.3932259044D-04
   current occupation vector 
    10  3
    10  3
      28          -534.804499492982131              0.1188446453D-04
   current occupation vector 
    10  3
    10  3
      29          -534.804499492989294              0.4717703703D-05
   current occupation vector 
    10  3
    10  3
      30          -534.804499492992704              0.2580833871D-05
   current occupation vector 
    10  3
    10  3
      31          -534.804499492990658              0.4085808256D-06
   current occupation vector 
    10  3
    10  3
      32          -534.804499492995774              0.1517471338D-06
   current occupation vector 
    10  3
    10  3
      33          -534.804499492997707              0.3201976906D-07
   current occupation vector 
    10  3
    10  3
      34          -534.804499492993841              0.1317223364D-07
   current occupation vector 
    10  3
    10  3
      35          -534.804499492997252              0.2749394712D-08
   current occupation vector 
    10  3
    10  3
      36          -534.804499492994637              0.7741960267D-09
   current occupation vector 
    10  3
    10  3
      37          -534.804499493000321              0.4337413206D-09
   current occupation vector 
    10  3
    10  3
      38          -534.804499492998957              0.2454465797D-09
   current occupation vector 
    10  3
    10  3

  SCF has converged.

 Density matrix saved to file den.dat
 total electron number:   26.0000000000002     
     E(SCF)=      -534.804499492998616              0.9489065089D-10

  Eigenvector printing suppressed.

 @PUTMOS-I, Writing converged MOs to NEWMOS. 
 @PUTMOS-I, Symmetry   1 Full Blocks 26 Partial Blocksize   0
 @PUTMOS-I, Symmetry   2 Full Blocks 13 Partial Blocksize   1
 @PUTFOCK-I, Writing converged Fock matrix to NEWFOCK. 
 @PUTFOCK-I, Symmetry   1 Full Blocks 26 Partial Blocksize   0
 @PUTFOCK-I, Symmetry   2 Full Blocks 13 Partial Blocksize   1


 
  ORBITAL EIGENVALUES (ALPHA)  (1H = 27.2113834 eV)

       MO #        E(hartree)               E(eV)           FULLSYM    COMPSYM
       ----   --------------------   --------------------   -------   ---------
    1     1        -104.9002795707       -2854.4817261645     A'        A'  (1)
    2     2         -20.6121942653        -560.8863208676     A'        A'  (1)
    3     3         -10.6199049498        -288.9823052606     A'        A'  (1)
    4     4          -8.0866312319        -220.0484228668     A'        A'  (1)
    5     5          -8.0842409589        -219.9833802309     A'        A'  (1)
    6   105          -8.0840846764        -219.9791275680     A''       A'' (2)
    7     6          -1.5069994725         -41.0075404287     A'        A'  (1)
    8     7          -1.0999777622         -29.9319166175     A'        A'  (1)
    9     8          -0.7847575961         -21.3543398222     A'        A'  (1)
   10   106          -0.6259499330         -17.0329636157     A''       A'' (2)
   11     9          -0.6179639100         -16.8156528818     A'        A'  (1)
   12    10          -0.4794855814         -13.0474659893     A'        A'  (1)
   13   107          -0.4523910944         -12.3101875159     A''       A'' (2)
  +++++++++++++++++++++++++++++++++++++++++++++++++++++++++++++++++++++++++++++
   14    11           0.0325412456           0.8854923095     A'        A'  (1)
   15    12           0.0599150308           1.6303708751     A'        A'  (1)
   16    13           0.1089803005           2.9655047402     A'        A'  (1)
   17   108           0.1145450539           3.1169293786     A''       A'' (2)
   18    14           0.1378497824           3.7510832813     A'        A'  (1)
   19    15           0.1572332832           4.2785351525     A'        A'  (1)
   20    16           0.1698732043           4.6224848907     A'        A'  (1)
   21   109           0.1802105018           4.9037770574     A''       A'' (2)
   22    17           0.1825371597           4.9670886363     A'        A'  (1)
   23    18           0.2582657592           7.0277685921     A'        A'  (1)
   24   110           0.2730305367           7.4295386142     A''       A'' (2)
   25    19           0.3101575730           8.4398166328     A'        A'  (1)
   26    20           0.3261199165           8.8741740809     A'        A'  (1)
   27   111           0.3869549366          10.5295791396     A''       A'' (2)
   28    21           0.3910890198          10.6420732626     A'        A'  (1)
   29   112           0.4157581967          11.3133556921     A''       A'' (2)
   30    22           0.4331093285          11.7855039908     A'        A'  (1)
   31    23           0.4750890549          12.9278304224     A'        A'  (1)
   32    24           0.4973377414          13.5332479607     A'        A'  (1)
   33   113           0.6096254051          16.5887506289     A''       A'' (2)
   34    25           0.6270363255          17.0625258602     A'        A'  (1)
   35    26           0.6657809007          18.1168193504     A'        A'  (1)
   36    27           0.7172512071          19.5173975895     A'        A'  (1)
   37    28           0.7294712724          19.8499224715     A'        A'  (1)
   38   114           0.7295154531          19.8511246898     A''       A'' (2)
   39   115           0.7677716305          20.8921282022     A''       A'' (2)
   40    29           0.7974364014          21.6993476549     A'        A'  (1)
   41    30           0.8567362376          23.3129782334     A'        A'  (1)
   42   116           0.8685537697          23.6345496303     A''       A'' (2)
   43    31           0.9047160513          24.6185753393     A'        A'  (1)
   44   117           0.9058009189          24.6480960873     A''       A'' (2)
   45    32           0.9161061581          24.9285159028     A'        A'  (1)
   46   118           0.9329924318          25.3880147709     A''       A'' (2)
   47    33           0.9442307258          25.6938242977     A'        A'  (1)
   48    34           0.9723536201          26.4590871581     A'        A'  (1)
   49    35           1.0013124845          27.2470979187     A'        A'  (1)
   50   119           1.0290770580          28.0026103745     A''       A'' (2)
   51   120           1.1006349641          29.9497999922     A''       A'' (2)
   52    36           1.1170648279          30.3968793136     A'        A'  (1)
   53    37           1.1557263839          31.4489137372     A'        A'  (1)
   54   121           1.2367595626          33.6539386306     A''       A'' (2)
   55    38           1.2413937523          33.7800413439     A'        A'  (1)
   56    39           1.3192640861          35.8990008531     A'        A'  (1)
   57    40           1.3613465731          37.0441235407     A'        A'  (1)
   58    41           1.4340966998          39.0237551307     A'        A'  (1)
   59   122           1.4376266067          39.1198087815     A''       A'' (2)
   60   123           1.5088128417          41.0568847141     A''       A'' (2)
   61    42           1.5582950127          42.4033630414     A'        A'  (1)
   62   124           1.6742859066          45.5596357249     A''       A'' (2)
   63    43           1.6825646948          45.7849130059     A'        A'  (1)
   64    44           1.7444704062          47.4694530531     A'        A'  (1)
   65    45           1.8132815740          49.3419001225     A'        A'  (1)
   66   125           2.1691201401          59.0247597723     A''       A'' (2)
   67    46           2.2311249856          60.7119973958     A'        A'  (1)
   68    47           2.2413904383          60.9913345666     A'        A'  (1)
   69    48           2.2982877149          62.5395881738     A'        A'  (1)
   70   126           2.3071423545          62.7805351675     A''       A'' (2)
   71    49           2.3315120230          63.4436675606     A'        A'  (1)
   72   127           2.3402581479          63.6816617182     A''       A'' (2)
   73    50           2.3668449472          64.4051253073     A'        A'  (1)
   74    51           2.4425706560          66.4657266011     A'        A'  (1)
   75   128           2.4522843210          66.7300488639     A''       A'' (2)
   76    52           2.4730620625          67.2954399559     A'        A'  (1)
   77   129           2.4739654690          67.3200228963     A''       A'' (2)
   78   130           2.5098864251          68.2974818050     A''       A'' (2)
   79    53           2.5257904689          68.7302528385     A'        A'  (1)
   80    54           2.6092080930          71.0001617890     A'        A'  (1)
   81   131           2.6730555332          72.7375389640     A''       A'' (2)
   82    55           2.8264138822          76.9106317956     A'        A'  (1)
   83   132           2.8947844468          78.7710894409     A''       A'' (2)
   84    56           2.9450320245          80.1383955450     A'        A'  (1)
   85    57           2.9732941110          80.9074460164     A'        A'  (1)
   86   133           3.0485500359          82.9552638412     A''       A'' (2)
   87    58           3.0542436109          83.1101938941     A'        A'  (1)
   88    59           3.1233862251          84.9916600775     A'        A'  (1)
   89   134           3.1493760921          85.6988803125     A''       A'' (2)
   90    60           3.2646661162          88.8360813603     A'        A'  (1)
   91    61           3.3495457255          91.1457729537     A'        A'  (1)
   92   135           3.3762065122          91.8712498419     A''       A'' (2)
   93    62           3.5134306808          95.6053093047     A'        A'  (1)
   94    63           3.9096328547         106.3865185626     A'        A'  (1)
   95    64           3.9474979129         107.4168791795     A'        A'  (1)
   96   136           4.3082433995         117.2332629250     A''       A'' (2)
   97   137           4.4590387260         121.3366123700     A''       A'' (2)
   98   138           4.5119439324         122.7762362236     A''       A'' (2)
   99    65           4.5277883406         123.2073844900     A'        A'  (1)
  100    66           4.6965247928         127.7989367849     A'        A'  (1)
  101    67           4.7701322100         129.8018964341     A'        A'  (1)
  102    68           5.1482234475         140.0902820577     A'        A'  (1)
  103   139           5.8044041392         157.9458664410     A''       A'' (2)
  104    69           5.9387899238         161.6026895473     A'        A'  (1)
  105    70           5.9634283405         162.2731349531     A'        A'  (1)
  106    71           6.3119775649         171.7576415302     A'        A'  (1)
  107    72           6.4774593026         176.2606285414     A'        A'  (1)
  108   140           6.7032276767         182.4040983278     A''       A'' (2)
  109    73           6.7043788132         182.4354223442     A'        A'  (1)
  110   141           6.8037919815         185.1405921836     A''       A'' (2)
  111    74           6.8683408775         186.8970569386     A'        A'  (1)
  112   142           6.9787707687         189.9020070489     A''       A'' (2)
  113    75           7.1225945482         193.8156510548     A'        A'  (1)
  114   143           7.1663468985         195.0062130336     A''       A'' (2)
  115    76           7.5997672504         206.8001804005     A'        A'  (1)
  116   144           8.4584862730         230.1671129588     A''       A'' (2)
  117    77           8.4799835806         230.7520844374     A'        A'  (1)
  118    78           8.7643969707         238.4913662382     A'        A'  (1)
  119    79          10.3410131582         281.3932737923     A'        A'  (1)
  120   145          10.3412722791         281.4003248315     A''       A'' (2)
  121   146          10.3788426656         282.4226670208     A''       A'' (2)
  122    80          10.4237068671         283.6434840095     A'        A'  (1)
  123    81          10.5387895432         286.7750428329     A'        A'  (1)
  124    82          10.6777743719         290.5570122936     A'        A'  (1)
  125   147          12.6714228532         344.8069454822     A''       A'' (2)
  126    83          12.7284196140         346.3579061924     A'        A'  (1)
  127    84          13.2260997694         359.9004717129     A'        A'  (1)
  128    85          18.2888150370         497.6639579031     A'        A'  (1)
  129   148          26.4207294170         718.9445978723     A''       A'' (2)
  130    86          26.7321737316         727.4194285253     A'        A'  (1)
  131    87          28.0194585655         762.4482296853     A'        A'  (1)
  132    88          29.6141842671         805.8429221690     A'        A'  (1)
  133   149          36.8863388675        1003.7283091448     A''       A'' (2)
  134    89          36.8864563227        1003.7315052632     A'        A'  (1)
  135   150          36.8868335110        1003.7417690798     A''       A'' (2)
  136    90          36.8921200519        1003.8856231719     A'        A'  (1)
  137   151          36.8954660732        1003.9766730387     A''       A'' (2)
  138    91          36.8955619162        1003.9792810604     A'        A'  (1)
  139    92          36.8994459928        1004.0849721573     A'        A'  (1)
  140   152          43.9385518699        1195.6287809721     A''       A'' (2)
  141    93          44.0244057615        1197.9649841345     A'        A'  (1)
  142   153          44.1721335835        1201.9848625364     A''       A'' (2)
  143    94          44.2356193371        1203.7123977169     A'        A'  (1)
  144    95          44.7512766568        1217.7441467471     A'        A'  (1)
  145    96          46.4736027772        1264.6110231508     A'        A'  (1)
  146   154          46.4737638120        1264.6154051293     A''       A'' (2)
  147   155          46.4980444593        1265.2761151325     A''       A'' (2)
  148    97          46.5312104833        1266.1786085263     A'        A'  (1)
  149    98          46.6176596151        1268.5310089984     A'        A'  (1)
  150   156          55.0106456339        1496.9157694256     A''       A'' (2)
  151    99          55.0736125225        1498.6291855716     A'        A'  (1)
  152   100          55.6527018759        1514.3870079922     A'        A'  (1)
  153   101         103.9081036166        2827.4832458788     A'        A'  (1)
  154   157         138.5112748594        3769.0834054227     A''       A'' (2)
  155   102         138.7298175429        3775.0302541727     A'        A'  (1)
  156   103         139.8488054993        3805.4794644739     A'        A'  (1)
  157   104         150.4374162906        4093.6102123889     A'        A'  (1)


  VSCF finished.

 @CHECKOUT-I, Total execution time (CPU/WALL):       66.20/      13.17 seconds.
--executable xvscf finished with status     0 in       13.20 seconds (walltime).
 --invoking executable--
/home/asmola/.local/bin/xvtran
 @GETMEM-I,  Allocated    3814 MB of main memory.
  Full RHF integral transformation
  Transformation of IIII integrals :
  1 pass through the AO integral file was required.
    14250102 AO integrals were read.
    15933126 MO integrals were written to HF2.
  Transformation of IIJJ integrals :
  1 pass through the AO integral file was required.
     6957129 AO integrals were read.
     7813260 MO integrals were written to HF2.
  Transformation of IJIJ integrals :
  1 pass through the AO integral file was required.
    13496491 AO integrals were read.
    15193828 MO integrals were written to HF2.
  Summary of active molecular orbitals: 
------------------------------------------------------------------------
 
  Index      Eigenvalue    Symmetry    Index      Eigenvalue    Symmetry
------------------------------------------------------------------------
     1      -104.9002796        1        80         8.4799836        1
     2       -20.6121943        1        81         8.7643970        1
     3       -10.6199049        1        82        10.3410132        1
     4        -8.0866312        1        83        10.4237069        1
     5        -8.0842410        1        84        10.5387895        1
     6        -1.5069995        1        85        10.6777744        1
     7        -1.0999778        1        86        12.7284196        1
     8        -0.7847576        1        87        13.2260998        1
     9        -0.6179639        1        88        18.2888150        1
    10        -0.4794856        1        89        26.7321737        1
    11        -8.0840847        2        90        28.0194586        1
    12        -0.6259499        2        91        29.6141843        1
    13        -0.4523911        2        92        36.8864563        1
    14         0.0325412        1        93        36.8921201        1
    15         0.0599150        1        94        36.8955619        1
    16         0.1089803        1        95        36.8994460        1
    17         0.1378498        1        96        44.0244058        1
    18         0.1572333        1        97        44.2356193        1
    19         0.1698732        1        98        44.7512767        1
    20         0.1825372        1        99        46.4736028        1
    21         0.2582658        1       100        46.5312105        1
    22         0.3101576        1       101        46.6176596        1
    23         0.3261199        1       102        55.0736125        1
    24         0.3910890        1       103        55.6527019        1
    25         0.4331093        1       104       103.9081036        1
    26         0.4750891        1       105       138.7298175        1
    27         0.4973377        1       106       139.8488055        1
    28         0.6270363        1       107       150.4374163        1
    29         0.6657809        1       108         0.1145451        2
    30         0.7172512        1       109         0.1802105        2
    31         0.7294713        1       110         0.2730305        2
    32         0.7974364        1       111         0.3869549        2
    33         0.8567362        1       112         0.4157582        2
    34         0.9047161        1       113         0.6096254        2
    35         0.9161062        1       114         0.7295155        2
    36         0.9442307        1       115         0.7677716        2
    37         0.9723536        1       116         0.8685538        2
    38         1.0013125        1       117         0.9058009        2
    39         1.1170648        1       118         0.9329924        2
    40         1.1557264        1       119         1.0290771        2
    41         1.2413938        1       120         1.1006350        2
    42         1.3192641        1       121         1.2367596        2
    43         1.3613466        1       122         1.4376266        2
    44         1.4340967        1       123         1.5088128        2
    45         1.5582950        1       124         1.6742859        2
    46         1.6825647        1       125         2.1691201        2
    47         1.7444704        1       126         2.3071424        2
    48         1.8132816        1       127         2.3402581        2
    49         2.2311250        1       128         2.4522843        2
    50         2.2413904        1       129         2.4739655        2
    51         2.2982877        1       130         2.5098864        2
    52         2.3315120        1       131         2.6730555        2
    53         2.3668449        1       132         2.8947844        2
    54         2.4425707        1       133         3.0485500        2
    55         2.4730621        1       134         3.1493761        2
    56         2.5257905        1       135         3.3762065        2
    57         2.6092081        1       136         4.3082434        2
    58         2.8264139        1       137         4.4590387        2
    59         2.9450320        1       138         4.5119439        2
    60         2.9732941        1       139         5.8044041        2
    61         3.0542436        1       140         6.7032277        2
    62         3.1233862        1       141         6.8037920        2
    63         3.2646661        1       142         6.9787708        2
    64         3.3495457        1       143         7.1663469        2
    65         3.5134307        1       144         8.4584863        2
    66         3.9096329        1       145        10.3412723        2
    67         3.9474979        1       146        10.3788427        2
    68         4.5277883        1       147        12.6714229        2
    69         4.6965248        1       148        26.4207294        2
    70         4.7701322        1       149        36.8863389        2
    71         5.1482234        1       150        36.8868335        2
    72         5.9387899        1       151        36.8954661        2
    73         5.9634283        1       152        43.9385519        2
    74         6.3119776        1       153        44.1721336        2
    75         6.4774593        1       154        46.4737638        2
    76         6.7043788        1       155        46.4980445        2
    77         6.8683409        1       156        55.0106456        2
    78         7.1225945        1       157       138.5112749        2
    79         7.5997673        1
------------------------------------------------------------------------
  -104.900279570664       -20.6121942652732       -10.6199049498016     
  -8.08663123194335       -8.08424095891018       -1.50699947246149     
  -1.09997776215583      -0.784757596052542      -0.617963909977984     
 -0.479485581364454       -8.08408467641631      -0.625949932986106     
 -0.452391094378316       3.254124557059964E-002  5.991503082096371E-002
  0.108980300509557       0.137849782431238       0.157233283204011     
  0.169873204267877       0.182537159661913       0.258265759177340     
  0.310157572982541       0.326119916450350       0.391089019845883     
  0.433109328459252       0.475089054913647       0.497337741407516     
  0.627036325547100       0.665780900738393       0.717251207064550     
  0.729471272359249       0.797436401373717       0.856736237576306     
  0.904716051273610       0.916106158086780       0.944230725797526     
  0.972353620143940        1.00131248449088        1.11706482786100     
   1.15572638387918        1.24139375228953        1.31926408611404     
   1.36134657309443        1.43409669978985        1.55829501271981     
   1.68256469481328        1.74447040620222        1.81328157400771     
   2.23112498557512        2.24139043833390        2.29828771490688     
   2.33151202303757        2.36684494722379        2.44257065596786     
   2.47306206254629        2.52579046894293        2.60920809300107     
   2.82641388219899        2.94503202453760        2.97329411103808     
   3.05424361093164        3.12338622509937        3.26466611617802     
   3.34954572554743        3.51343068080650        3.90963285470400     
   3.94749791293176        4.52778834059561        4.69652479281367     
   4.77013220996527        5.14822344745917        5.93878992375332     
   5.96342834054977        6.31197756488164        6.47745930261745     
   6.70437881317730        6.86834087746555        7.12259454823583     
   7.59976725036811        8.47998358059975        8.76439697065026     
   10.3410131582031        10.4237068670853        10.5387895432353     
   10.6777743719399        12.7284196139896        13.2260997694405     
   18.2888150369869        26.7321737315767        28.0194585654639     
   29.6141842670510        36.8864563226585        36.8921200519294     
   36.8955619162106        36.8994459927878        44.0244057615424     
   44.2356193370501        44.7512766567813        46.4736027772416     
   46.5312104832671        46.6176596151446        55.0736125224579     
   55.6527018759422        103.908103616620        138.729817542929     
   139.848805499314        150.437416290598       0.114545053914244     
  0.180210501808855       0.273030536706233       0.386954936647416     
  0.415758196701841       0.609625405111656       0.729515453072546     
  0.767771630538289       0.868553769680961       0.905800918863822     
  0.932992431794397        1.02907705804074        1.10063496412414     
   1.23675956256710        1.43762660671986        1.50881284169050     
   1.67428590657067        2.16912014007621        2.30714235453138     
   2.34025814792689        2.45228432097680        2.47396546903535     
   2.50988642514218        2.67305553322256        2.89478444675274     
   3.04855003591050        3.14937609208555        3.37620651223147     
   4.30824339952387        4.45903872604979        4.51194393239115     
   5.80440413922422        6.70322767668750        6.80379198154365     
   6.97877076873892        7.16634689854199        8.45848627302136     
   10.3412722791395        10.3788426655605        12.6714228532100     
   26.4207294169521        36.8863388674593        36.8868335109986     
   36.8954660731689        43.9385518698791        44.1721335834912     
   46.4737638119974        46.4980444593075        55.0106456339013     
   138.511274859427     
 @CHECKOUT-I, Total execution time (CPU/WALL):       34.24/      19.33 seconds.
--executable xvtran finished with status     0 in       19.40 seconds (walltime).
 --invoking executable--
/home/asmola/.local/bin/xintprc
 @GETMEM-I,  Allocated    3814 MB of main memory.
  Processing integrals for CCSD calculation.
  @GMOIAA-I, Processing MO integrals for spin case AA.
  @GMOIAA-I, Generation of integral list completed.
                      TYPE                NUMBER
                      ----               --------
                      PPPP              27524020
                      PPPH               9932000
                      PPHH                900748
                      PHPH                491140
                      PHHH                 89950
                      HHHH                  2356

                     TOTAL              38940214

  @FORMT2-I, Second-order MP correlation energies:
            ------------------------------------------------
            E(SCF)                  =   -534.804499492999 a.u.
            E2(AA)                  =     -0.105944718200 a.u.
            E2(AB)                  =     -0.622125646452 a.u.
            E2(TOT)                 =     -0.834015082852 a.u.
            Total MP2 energy        =   -535.638514575850 a.u.
            ------------------------------------------------
   Largest T2 amplitudes for spin case AB:
       _       _                 _       _                 _       _
   i   j   a   b             i   j   a   b             i   j   a   b
-----------------------------------------------------------------------------
[  9   9  17  17]-0.02688 [  9   9  17  15] 0.02243 [  9   9  15  17] 0.02243
[  9   9  15  15]-0.02007 [ 13  13 112 112]-0.01787 [ 13  13 113 113]-0.01585
[ 13  13 116 116]-0.01465 [ 10  10  34  34]-0.01328 [ 10  10  25  25]-0.01313
[ 13  13 117 117]-0.01277 [ 10  10  24  24]-0.01273 [ 10  10 117 117]-0.01245
[  9   9  18  17] 0.01239 [  9   9  17  18] 0.01239 [ 13   9 112  17]-0.01231
-----------------------------------------------------------------------------
   Norm of T2AB vector (  1799624 symmetry allowed elements):  0.3141151837.
-----------------------------------------------------------------------------
 @CHECKOUT-I, Total execution time (CPU/WALL):        6.63/      11.33 seconds.
--executable xintprc finished with status     0 in       11.47 seconds (walltime).
  calling xvcc 
 --invoking executable--
/home/asmola/.local/bin/xvcc
 @GETMEM-I,  Allocated    3814 MB of main memory.
   CCSD energy will be calculated.
   The total correlation energy is -0.834015082852 a.u.
   The total correlation energy is -0.839396140550 a.u.
  Convergence information after     1 iterations: 
  Largest element of residual vector : -0.11309054E-01.
  Largest element of DIIS residual   : -0.11309054E-01.
   The total correlation energy is -0.851167353011 a.u.
  Convergence information after     2 iterations: 
  Largest element of residual vector : -0.32937872E-02.
  Largest element of DIIS residual   : -0.31783989E-02.
   The total correlation energy is -0.851386916503 a.u.
  Convergence information after     3 iterations: 
  Largest element of residual vector : -0.18210910E-02.
  Largest element of DIIS residual   : -0.90824722E-03.
   The total correlation energy is -0.852480267220 a.u.
  Convergence information after     4 iterations: 
  Largest element of residual vector : -0.24688971E-03.
  Largest element of DIIS residual   :  0.20760044E-03.
   The total correlation energy is -0.852571990700 a.u.
  Convergence information after     5 iterations: 
  Largest element of residual vector :  0.17204649E-03.
  Largest element of DIIS residual   :  0.97571464E-04.
   The total correlation energy is -0.852569975716 a.u.
  Convergence information after     6 iterations: 
  Largest element of residual vector : -0.59645370E-04.
  Largest element of DIIS residual   : -0.48136220E-04.
   The total correlation energy is -0.852570014396 a.u.
  Convergence information after     7 iterations: 
  Largest element of residual vector :  0.28778630E-04.
  Largest element of DIIS residual   :  0.20598122E-04.
   The total correlation energy is -0.852569645721 a.u.
  Convergence information after     8 iterations: 
  Largest element of residual vector : -0.12910441E-04.
  Largest element of DIIS residual   : -0.10406513E-04.
   The total correlation energy is -0.852569511235 a.u.
  Convergence information after     9 iterations: 
  Largest element of residual vector :  0.85206802E-05.
  Largest element of DIIS residual   :  0.56295660E-05.
   The total correlation energy is -0.852569964711 a.u.
  Convergence information after    10 iterations: 
  Largest element of residual vector :  0.49089299E-05.
  Largest element of DIIS residual   :  0.34452138E-05.
   The total correlation energy is -0.852570082179 a.u.
  Convergence information after    11 iterations: 
  Largest element of residual vector :  0.22484161E-05.
  Largest element of DIIS residual   : -0.13992797E-05.
   The total correlation energy is -0.852570160628 a.u.
  Convergence information after    12 iterations: 
  Largest element of residual vector :  0.13197175E-05.
  Largest element of DIIS residual   :  0.64249986E-06.
   The total correlation energy is -0.852570181782 a.u.
  Convergence information after    13 iterations: 
  Largest element of residual vector : -0.34923413E-06.
  Largest element of DIIS residual   : -0.25472007E-06.
   The total correlation energy is -0.852570180073 a.u.
  Convergence information after    14 iterations: 
  Largest element of residual vector :  0.19433909E-06.
  Largest element of DIIS residual   :  0.11099280E-06.
   The total correlation energy is -0.852570178376 a.u.
  Convergence information after    15 iterations: 
  Largest element of residual vector : -0.77296672E-07.
  Largest element of DIIS residual   : -0.51961010E-07.
   The total correlation energy is -0.852570177146 a.u.
  Convergence information after    16 iterations: 
  Largest element of residual vector :  0.37290841E-07.
  Largest element of DIIS residual   : -0.20652144E-07.
   The total correlation energy is -0.852570177380 a.u.
  Convergence information after    17 iterations: 
  Largest element of residual vector :  0.21297236E-07.
  Largest element of DIIS residual   :  0.18343499E-07.
   The total correlation energy is -0.852570177373 a.u.
  Convergence information after    18 iterations: 
  Largest element of residual vector :  0.12680807E-07.
  Largest element of DIIS residual   : -0.11168032E-07.
   The total correlation energy is -0.852570177485 a.u.
  Convergence information after    19 iterations: 
  Largest element of residual vector :  0.89069440E-08.
  Largest element of DIIS residual   :  0.61484754E-08.
   The total correlation energy is -0.852570177621 a.u.
  Convergence information after    20 iterations: 
  Largest element of residual vector : -0.42962171E-08.
  Largest element of DIIS residual   : -0.32236790E-08.
   The total correlation energy is -0.852570177642 a.u.
  Convergence information after    21 iterations: 
  Largest element of residual vector :  0.24059040E-08.
  Largest element of DIIS residual   :  0.17571941E-08.
   The total correlation energy is -0.852570177649 a.u.
  Convergence information after    22 iterations: 
  Largest element of residual vector :  0.12792883E-08.
  Largest element of DIIS residual   :  0.72872201E-09.
   The total correlation energy is -0.852570177641 a.u.
  Convergence information after    23 iterations: 
  Largest element of residual vector :  0.52857830E-09.
  Largest element of DIIS residual   :  0.31742020E-09.
   The total correlation energy is -0.852570177633 a.u.
  Convergence information after    24 iterations: 
  Largest element of residual vector :  0.25354886E-09.
  Largest element of DIIS residual   :  0.19147173E-09.
   The total correlation energy is -0.852570177632 a.u.
  Convergence information after    25 iterations: 
  Largest element of residual vector : -0.13256088E-09.
  Largest element of DIIS residual   : -0.10800029E-09.
   The total correlation energy is -0.852570177632 a.u.
  Convergence information after    26 iterations: 
  Largest element of residual vector :  0.82017683E-10.
  Largest element of DIIS residual   :  0.61803857E-10.
  Amplitude equations converged in    26iterations.
   The total correlation energy is -0.852570177633 a.u.
   The CC iterations have converged.

   Largest T1 amplitudes for spin case AA:
   i       a                 i       a                 i       a    
-----------------------------------------------------------------------------
[...]
 final tnorm  0.854140242445529     
  norm contr. I: |<0|L dT/dx|0>|^2   0.000000000000000E+000
  norm contr. II: <0|[nabla(1+L)e-T][nabla e^T]|0>  0.510043003702373     
  total norm contribution  0.510043003702373     
 oo  2.158977925391675E-003
 vv  -1.62732504688368     
 vo -2.400083329721173E-002
  Correlated perturbed 1-el contribution to DBOC  -1.64916690225550       cm**-1
  SUM_I |dc_I/dx|^2 contribution to DBOC  0.830824491354358       cm**-1
 
 
  The total diagonal Born-Oppenheimer correction (DBOC) is:      0.0084726303 a.u.
  The total diagonal Born-Oppenheimer correction (DBOC) is:       1859.527417 cm-1
 
 Total CC energy including DBOC  -535.648597040307     
 First-order density matrix is being calculated  (Symmetry block 2, perturbation   3)
 Calculation of the contributions of <pq||rs> to dI(i,j)/dx required   2.0 seconds.
 Calculation of the contributions of <pq||rs> to dI(a,b)/dx required   8.8 seconds.
 Calculation of the contributions of <pq||rs> to dI(i,a)/dx required   5.8 seconds.
 First-order Z-vector equations are solved for 1 perturbation.
 Convergence reached after  23 iterations.
        U*G(pq,rs) contribution is being calculated
             (Symmetry block 2, perturbation   3)

 CCSD contribution to force constants 

        0.0000000000        0.0000000000        0.0000000000
        0.0000000000        0.0000000000        0.0000000000
        0.0000000000        0.0000000000        0.0000000000
        0.0000000000        0.0000000000        0.0000000000
        0.0000000000        0.0000000000        0.0000000000
        0.0000000000        0.0000000000        0.0000000000
        0.0000000000        0.0000000000        0.0000000000
        0.0000000000        0.0000000000        0.0000000000
        0.0000000000        0.0000000000        0.0000000000
        0.0000000000        0.0000000000        0.0000000000
        0.0000000000        0.0000000000        0.0000000000
        0.0000000000        0.0000000000        0.0000000000
        0.0000000000        0.0000000000        0.0000000000
        0.0000000000        0.0000000000        0.0000000000
        0.0000000000        0.0000000000        0.0000000000
        0.0000000000        0.0000000000        0.0000000000
        0.0000000000        0.0000000000        0.0000000000
        0.0000000000        0.0000000000        0.0000000000
        0.0000000000        0.0000000000        0.0000000000
        0.0000000000        0.0000000000        0.0000000000
        0.0000000000        0.0000000000        0.0000000000
        0.0000000000        0.0000000000        0.0000000000
        0.0000000000        0.0000000000        0.0000000000
        0.0000000000        0.0000000000        0.0000000000
        0.0000000000        0.0000000000        0.0000000000
        0.0000000000        0.0000000000        0.0000000000
        0.1940187696        0.0243541361       -0.2183729057

 CCSD contribution to dipole derivatives 

        0.0000000000        0.0000000000        0.0000000000
        0.0000000000        0.0000000000        0.0000000000
        0.0000000000        0.0000000000        0.0000000000
        0.0000000000        0.0000000000        0.0000000000
        0.0000000000        0.0000000000        0.0000000000
        0.0000000000        0.0000000000        0.0000000000
        0.0000000000        0.0000000000        0.0000000000
        0.0000000000        0.0000000000        0.0000000000
        0.0000000000        0.0000000000        0.0114808653
 @CHECKOUT-I, Total execution time (CPU/WALL):      876.54/     180.79 seconds.
--executable xsdcc finished with status     0 in      180.93 seconds (walltime).
 --invoking executable--
/home/asmola/.local/bin/xanti
 @GETMEM-I,  Allocated    3814 MB of main memory.
 CCSD MO derivative gammas will be sorted to Mulliken order.
 @CHECKOUT-I, Total execution time (CPU/WALL):        6.34/       4.89 seconds.
--executable xanti finished with status     0 in        4.96 seconds (walltime).
 --invoking executable--
/home/asmola/.local/bin/xbcktrn
 @GETMEM-I,  Allocated    3814 MB of main memory.
 CCSD MO derivative gammas will be transformed to the AO basis.
 @CHECKOUT-I, Total execution time (CPU/WALL):       11.70/      11.49 seconds.
--executable xbcktrn finished with status     0 in       11.51 seconds (walltime).
 --invoking executable--
/home/asmola/.local/bin/xvdint
 @GETMEM-I,  Allocated    3814 MB of main memory.
 One- and two-electron integral derivatives are calculated
 for RHF-CC/MBPT hessians and dipole derivatives.
 Spherical gaussians are used.
  magnet F F
 Evaluation of 2el integral derivatives

                      Two-electron integral gradient
                      ------------------------------

                         O #1 x     0.0000000000
                         O #1 y     0.0000000000
                         H #2 x     0.0000000000
                         H #2 y     0.0000000000
                         CL#3 x     0.0000000000
                         CL#3 y     0.0000000000


 O #1       0.0000000000            0.0000000000           -0.0897443818
 H #2       0.0000000000            0.0000000000            0.0014369559
 CL#3       0.0000000000            0.0000000000            0.0883074258


 Evaluation of 2e integral derivatives required  108.67 seconds.
  contribution to Hessian
        0.0000000000        0.0000000000        0.0000000000
        0.0000000000        0.0000000000        0.0000000000
       -0.0897443818        0.0014369559        0.0883074258
 @CHECKOUT-I, Total execution time (CPU/WALL):      108.66/      19.52 seconds.
--executable xvdint finished with status     0 in       19.60 seconds (walltime).
 --invoking executable--
/home/asmola/.local/bin/xanti
 @GETMEM-I,  Allocated    3814 MB of main memory.
 CCSD MO gammas will be sorted to Mulliken order.
 @CHECKOUT-I, Total execution time (CPU/WALL):       11.21/      18.31 seconds.
--executable xanti finished with status     0 in       18.41 seconds (walltime).
 --invoking executable--
/home/asmola/.local/bin/xbcktrn
 @GETMEM-I,  Allocated    3814 MB of main memory.
 CCSD MO gammas will be transformed to the AO basis.
 @CHECKOUT-I, Total execution time (CPU/WALL):       17.03/       2.44 seconds.
--executable xbcktrn finished with status     0 in        2.51 seconds (walltime).
 --invoking executable--
/home/asmola/.local/bin/xvdint
 @GETMEM-I,  Allocated    3814 MB of main memory.
 One- and two-electron integral derivatives are calculated
 for RHF-CC/MBPT hessians and dipole derivatives.
 Spherical gaussians are used.
  magnet F F

                     Kinetic energy integral gradient
                     --------------------------------

                         O #1 x    -0.1910818767
                         O #1 y    -1.0327525550
                         H #2 x     0.5359742030
                         H #2 y     1.0591416683
                         CL#3 x    -0.3448923263
                         CL#3 y    -0.0263891133


 O #1      -0.1910818767           -1.0327525550            0.0000000000
 H #2       0.5359742030            1.0591416683            0.0000000000
 CL#3      -0.3448923263           -0.0263891133            0.0000000000



                   Nuclear attraction integral gradient
                   ------------------------------------

                         O #1 x   -22.4021325244
                         O #1 y     7.4015006367
                         H #2 x    -6.1655406176
                         H #2 y    -7.7800467173
                         CL#3 x    28.5676731419
                         CL#3 y     0.3785460806


 O #1     -22.4021325244            7.4015006367            0.0000000000
 H #2      -6.1655406176           -7.7800467173            0.0000000000
 CL#3      28.5676731419            0.3785460806            0.0000000000



                      Reorthonormalization gradient
                      -----------------------------

                         O #1 x     0.0000000000
                         O #1 y     0.0000000000
                         H #2 x     0.0000000000
                         H #2 y     0.0000000000
                         CL#3 x     0.0000000000
                         CL#3 y     0.0000000000


 O #1       0.0000000000            0.0000000000            0.0000000000
 H #2       0.0000000000            0.0000000000            0.0000000000
 CL#3       0.0000000000            0.0000000000            0.0000000000



                     Kinetic energy integral Hessian
                     -------------------------------


           Symmetry 1

           O #1 x      O #1 y      H #2 x      H #2 y      CL#3 x      CL#3 y

 O #1 x   -1.434019
 O #1 y    0.576374   -1.014174
 H #2 x    1.812334   -0.570334   -1.829049
 H #2 y   -0.570334    0.800493    0.585610   -0.797797
 CL#3 x   -0.378316   -0.006040    0.016715   -0.015276    0.361600
 CL#3 y   -0.006040    0.213681   -0.015276   -0.002696    0.021316   -0.210985


           Symmetry 2

           O #1 z      H #2 z      CL#3 z

 O #1 z   -2.510028
 H #2 z    2.305059   -2.310691
 CL#3 z    0.204969    0.005632   -0.210601




           O #1 x      O #1 y      O #1 z      H #2 x      H #2 y      H #2 z

 O #1 x   -1.434019
 O #1 y    0.576374   -1.014174
 O #1 z    0.000000    0.000000   -2.510028

 H #2 x    1.812334   -0.570334    0.000000   -1.829049
 H #2 y   -0.570334    0.800493    0.000000    0.585610   -0.797797
 H #2 z    0.000000    0.000000    2.305059    0.000000    0.000000   -2.310691

 CL#3 x   -0.378316   -0.006040    0.000000    0.016715   -0.015276    0.000000
 CL#3 y   -0.006040    0.213681    0.000000   -0.015276   -0.002696    0.000000
 CL#3 z    0.000000    0.000000    0.204969    0.000000    0.000000    0.005632


           CL#3 x      CL#3 y      CL#3 z

 CL#3 x    0.361600
 CL#3 y    0.021316   -0.210985
 CL#3 z    0.000000    0.000000   -0.210601




                   Nuclear attraction integral Hessian
                   -----------------------------------


           Symmetry 1

           O #1 x      O #1 y      H #2 x      H #2 y      CL#3 x      CL#3 y

 O #1 x   -1.158096
 O #1 y   -3.435382   16.392699
 H #2 x  -13.353218    3.968987   12.769548
 H #2 y    4.362259   -5.976128   -5.019713    5.987596
 CL#3 x   14.511314   -0.533606    0.583669    0.657454  -15.094983
 CL#3 y   -0.926877  -10.416571    1.050726   -0.011468   -0.123849   10.428039


           Symmetry 2

           O #1 z      H #2 z      CL#3 z

 O #1 z   26.496343
 H #2 z  -16.707595   17.262518
 CL#3 z   -9.788748   -0.554923   10.343671




           O #1 x      O #1 y      O #1 z      H #2 x      H #2 y      H #2 z

 O #1 x   -1.158096
 O #1 y   -3.435382   16.392699
 O #1 z    0.000000    0.000000   26.496343

 H #2 x  -13.353218    3.968987    0.000000   12.769548
 H #2 y    4.362259   -5.976128    0.000000   -5.019713    5.987596
 H #2 z    0.000000    0.000000  -16.707595    0.000000    0.000000   17.262518

 CL#3 x   14.511314   -0.533606    0.000000    0.583669    0.657454    0.000000
 CL#3 y   -0.926877  -10.416571    0.000000    1.050726   -0.011468    0.000000
 CL#3 z    0.000000    0.000000   -9.788748    0.000000    0.000000   -0.554923


           CL#3 x      CL#3 y      CL#3 z

 CL#3 x  -15.094983
 CL#3 y   -0.123849   10.428039
 CL#3 z    0.000000    0.000000   10.343671




                Highest order reorthonormalization Hessian
                ------------------------------------------


           Symmetry 1

           O #1 x      O #1 y      H #2 x      H #2 y      CL#3 x      CL#3 y

 O #1 x    0.000000
 O #1 y    0.000000    0.000000
 H #2 x    0.000000    0.000000    0.000000
 H #2 y    0.000000    0.000000    0.000000    0.000000
 CL#3 x    0.000000    0.000000    0.000000    0.000000    0.000000
 CL#3 y    0.000000    0.000000    0.000000    0.000000    0.000000    0.000000


           Symmetry 2

           O #1 z      H #2 z      CL#3 z

 O #1 z    0.000000
 H #2 z    0.000000    0.000000
 CL#3 z    0.000000    0.000000    0.000000




           O #1 x      O #1 y      O #1 z      H #2 x      H #2 y      H #2 z


           CL#3 x      CL#3 y      CL#3 z




                Electronic contributions to dipole moment
                -----------------------------------------

                               au             Debye

                    x      2.75529807      7.00327036
                    y      0.09974426      0.25352467

  Conversion factor used: 1 a.u. =   2.54174691 Debye 



   Electronic contributions to static part of dipole moment derivatives
   --------------------------------------------------------------------


                     Total dipole moment derivatives
                     -------------------------------


           Symmetry 1
                              Ex             Ey

               O #1 x    -8.49619035    -0.07296138
               O #1 y     0.09147259    -8.42703866
               H #2 x    -0.71989170     0.11363656
               H #2 y    -0.04502143    -0.71773890
               CL#3 x   -16.78391795    -0.04067518
               CL#3 y    -0.04645116   -16.85522244

           Symmetry 2
                              Ez

               O #1 z    -8.05045644
               H #2 z    -1.08241240
               CL#3 z   -16.86713117



                       Ex          Ey          Ez

      O #1    x   -8.496190   -0.072961    0.000000
      O #1    y    0.091473   -8.427039    0.000000
      O #1    z    0.000000    0.000000   -8.050456

      H #2    x   -0.719892    0.113637    0.000000
      H #2    y   -0.045021   -0.717739    0.000000
      H #2    z    0.000000    0.000000   -1.082412

      CL#3    x  -16.783918   -0.040675    0.000000
      CL#3    y   -0.046451  -16.855222    0.000000
      CL#3    z    0.000000    0.000000  -16.867131

 Evaluation of 1e integral derivatives required    1.62 seconds.
 Evaluation of 2el integral derivatives

                      Two-electron integral gradient
                      ------------------------------

                         O #1 x    10.3486861514
                         O #1 y    -2.1589074306
                         H #2 x     3.1399177117
                         H #2 y     2.5089951980
                         CL#3 x   -13.4886038631
                         CL#3 y    -0.3500877673


 O #1      10.3486861514           -2.1589074306            0.0000000000
 H #2       3.1399177117            2.5089951980            0.0000000000
 CL#3     -13.4886038631           -0.3500877673            0.0000000000


 Evaluation of 2e integral derivatives required  278.40 seconds.

                            Molecular gradient
                            ------------------

                         O #1 x    -0.2610889400
                         O #1 y    -0.4947020609
                         H #2 x     0.0961786368
                         H #2 y     0.4873052582
                         CL#3 x     0.1649103032
                         CL#3 y     0.0073968027


 O #1      -0.2610889400           -0.4947020609            0.0000000000
 H #2       0.0961786368            0.4873052582            0.0000000000
 CL#3       0.1649103032            0.0073968027            0.0000000000


  Molecular gradient norm 0.766E+00

                            Molecular hessian
                            -----------------


           Symmetry 1

           O #1 x      O #1 y      H #2 x      H #2 y      CL#3 x      CL#3 y

 O #1 x    5.481762
 O #1 y    3.005651    4.306888
 H #2 x   -3.847452   -6.656987    3.612002
 H #2 y   -2.991660   -4.128575    3.350753    3.437191
 CL#3 x   -1.634310    0.097836   -0.769428   -0.242299    2.403738
 CL#3 y   -0.013992   -0.178314   -0.422981   -0.212510    0.436972    0.390824


           Symmetry 2

           O #1 z      H #2 z      CL#3 z

 O #1 z  -10.969145
 H #2 z   10.963448  -11.440869
 CL#3 z    0.005697    0.027770   -0.033467




           O #1 x      O #1 y      O #1 z      H #2 x      H #2 y      H #2 z

 O #1 x    5.481762
 O #1 y    3.005651    4.306888
 O #1 z    0.000000    0.000000  -10.969145

 H #2 x   -3.847452   -6.656987    0.000000    3.612002
 H #2 y   -2.991660   -4.128575    0.000000    3.350753    3.437191
 H #2 z    0.000000    0.000000   10.963448    0.000000    0.000000  -11.440869

 CL#3 x   -1.634310    0.097836    0.000000   -0.769428   -0.242299    0.000000
 CL#3 y   -0.013992   -0.178314    0.000000   -0.422981   -0.212510    0.000000
 CL#3 z    0.000000    0.000000    0.005697    0.000000    0.000000    0.027770


           CL#3 x      CL#3 y      CL#3 z

 CL#3 x    2.403738
 CL#3 y    0.436972    0.390824
 CL#3 z    0.000000    0.000000   -0.033467




                           Total dipole moment
                           -------------------

                               au             Debye

                    x     -0.03269651     -0.08310624
                    y     -0.47435947     -1.20570173

  Conversion factor used: 1 a.u. =   2.54174691 Debye 



                     Total dipole moment derivatives
                     -------------------------------


           Symmetry 1
                              Ex             Ey

               O #1 x    -0.52377573    -0.02203573
               O #1 y    -0.28436091    -0.20703352
               H #2 x     0.23411827     0.03042505
               H #2 y     0.20741636     0.20326592
               CL#3 x     0.28965769    -0.00838937
               CL#3 y     0.07694470     0.00376756

           Symmetry 2
                              Ez

               O #1 z    -0.41244798
               H #2 z     0.37423207
               CL#3 z     0.03821585



                       Ex          Ey          Ez

      O #1    x   -0.523776   -0.022036    0.000000
      O #1    y   -0.284361   -0.207034    0.000000
      O #1    z    0.000000    0.000000   -0.412448

      H #2    x    0.234118    0.030425    0.000000
      H #2    y    0.207416    0.203266    0.000000
      H #2    z    0.000000    0.000000    0.374232

      CL#3    x    0.289658   -0.008389    0.000000
      CL#3    y    0.076945    0.003768    0.000000
      CL#3    z    0.000000    0.000000    0.038216

  Molecular gradient does not satisfy rotational invariance condition.
   rotational invariance in yz-plane :        0.0000E+00
   rotational invariance in xz-plane :        0.0000E+00
   rotational invariance in xy-plane :        0.4682E-01
 @CHECKOUT-I, Total execution time (CPU/WALL):      280.05/      40.48 seconds.
--executable xvdint finished with status     0 in       40.57 seconds (walltime).
 --invoking executable--
/home/asmola/.local/bin/xjoda
  @GTFLGS-I, Hessian will be transformed to curvilinear coordinates.
  @GTFLGS-I, Hessian will be transformed to curvilinear coordinates.
  igrd and ihes are                      0                     1
  gradient from JOBARC 
  -0.261088940043178  -0.494702060913078   0.000000000000000
   0.096178636801295   0.487305258198368   0.000000000000000
   0.164910303241886   0.007396802714716   0.000000000000000
 
  @PROJFCM-I, Projecting force constant matrix onto totally symmetric subspace.
  Largest difference between matrix elements of symmetrized
  and unsymmetrized FCM :     0.0000000000E+00.
  read isotopes from ZMAT file 
 
  Summary of diagonal Born-Oppenheimer correction at the correlated level
  The total diagonal Born-Oppenheimer correction (DBOC) is:      0.0084726303 a.u.
  The total diagonal Born-Oppenheimer correction (DBOC) is:       1859.527417 cm-1
  The total diagonal Born-Oppenheimer correction (DBOC) is:            22.245 kJ/mole
  hellooooooo 
  readis is  F
 
 @CHECKOUT-I, Total execution time (CPU/WALL):        0.03/       0.05 seconds.
--executable xjoda finished with status     0 in        0.09 seconds (walltime).
  The final electronic energy is      -535.648597040307436 a.u. 
  This computation required                         2355.87 seconds (walltime).
