 --invoking executable--
/home/asmola/.local/bin/xjoda


   *************************************************************************
         <<<     CCCCCC     CCCCCC   |||     CCCCCC     CCCCCC   >>>
       <<<      CCC        CCC       |||    CCC        CCC         >>>
      <<<      CCC        CCC        |||   CCC        CCC            >>>
    <<<        CCC        CCC        |||   CCC        CCC              >>>
      <<<      CCC        CCC        |||   CCC        CCC            >>>
       <<<      CCC        CCC       |||    CCC        CCC         >>>
         <<<     CCCCCC     CCCCCC   |||     CCCCCC     CCCCCC   >>>
   *************************************************************************

     ****************************************************************
     * CFOUR Coupled-Cluster techniques for Computational Chemistry *
     ****************************************************************
 

   Department of Chemistry                Institut fuer Physikalische Chemie
   University of Florida                  Universitaet Mainz
   Gainesville, FL 32611, USA             D-55099 Mainz, Germany

   Department of Chemistry                Fakultaet fuer Chemie und Biowiss.
   Johns Hopkins University               Karlsruher Institut fuer Technologie
   Baltimore, MD 21218, USA               D-76131 Karlsruhe, Germany

   Department of Chemistry                Department of Physical Chemistry
   Southern Methodist University          Eotvos Lorand University
   Dallas, TX 75275, USA                  H-1053 Budapest, Hungary

 
                       Version 2.1
 
                     vincent.theory.phys.ucl.ac.uk                     
                     Wed 29 Jan 11:36:21 GMT 2025                      
                     integer*8 version is running
 
********************************************************************************
*                          Input from ZMAT file                                *
********************************************************************************
Hypochlorous acid DBOC calculation                                              
O                                                                               
H 1 ROH                                                                         
CL 1 ROCL 2 A                                                                   
                                                                                
ROH=0.6                                                                         
ROCL=1.683                                                                      
A=107.0                                                                         
                                                                                
                                                                                
*CFOUR(CALC=CCSD,BASIS=AUG-PCVTZ,SCF_CONV=10                                    
CC_CONV=10,DBOC=ON,MEMORY=500000000)                                            
                                                                                
%isotopes                                                                       
16                                                                              
1                                                                               
37                                                                              
********************************************************************************
  @GTFLGS-I, Hessian will be transformed to curvilinear coordinates.
    -------------------------------------------------------------------
                    CFOUR Control Parameters 
    -------------------------------------------------------------------
        External           Internal           Value            Units
          Name               Name
    -------------------------------------------------------------------
       ABCDTYPE             IABCDT         STANDARD    [  0]    ***   
       ANHARMONIC           IANHAR         OFF         [  0]    ***   
       ANH_ALGORIT          IANALG         STANDARD    [  0]    ***   
       ANH_DERIVAT          IANDER         SECOND      [  1]    ***   
       ANH_MODE             ANHMOD         VIBRATION   [  0]    ***   
       ANH_STEPSIZ          ICUBST             50000          x 10-6  
       ANH_SYMMETR          IANHSM         ABELIAN     [  0]    ***   
       AO_LADDERS           IAOLAD         SINGLEPASS  [  1]    ***   
       AV_SCF               IAVSCF         OFF         [  0]    ***   
       BASIS                IBASIS         AUG-PCVTZ   [ 51]    ***   
       BOTHVECTORS          BOTHVC         OFF         [  0]    ***   
       BOX_POTENT           IPIAB          OFF         [  0]    ***   
       BREIT                IBREIT         OFF         [  0]    ***   
       BRUCK_CONV           IBRTOL          10D-  4             ***   
       BRUECKNER            IBRKNR         OFF         [  0]    ***   
       BUFFERSIZE           IBUFFS              4096            ***   
       CACHE_RECS           ICHREC             10               ***   
       CALCLEVEL            ICLLVL         CCSD        [ 10]    ***   
       CCORBOPT             ICCORB         OFF         [  0]  x 0.01  
       CC_CONV              ICCCNV          10D- 10             ***   
       CC_EXPORDER          ICCEOR              5               ***   
       CC_EXTRAPOL          ICCEXT         DIIS        [  1]    ***   
       CC_GUESS             ICCGES         MP2         [  0]    ***   
       CC_MAXCYC            ICCCYC            100              cycles 
       CC_PROGRAM           ICCPRO         VCC         [  0]    ***   
       CHARGE               ICHRGE              0               ***   
       CHOLESKY             ICHOLE         OFF         [  0]    ***   
       CIS_CONV             ICISTL              5               ***   
       COMM_SIZE            IPSIZE            ***               ***   
       CONSTANT             ICONST         OLD         [  1]    ***   
       CONTINUUM            ICONTU         NONE        [  0]    ***   
       CONTRACTION          ICNTYP         GENERAL     [  1]    ***   
       COORDINATES          ICOORD         INTERNAL    [  0]    ***   
       CPHF_CONVER          ICPHFT          10D- 16             ***   
       CPHF_MAXCYC          ICPHFC             64              cycles 
       CUBIC                ICUBIC         OFF         [  0]    ***   
       CURVILINEAR          ICURVY         ON          [  1]    ***   
       DBOC                 IDBOC          ON          [  1]    ***   
       DCT                  IDCT           OFF         [  0]    ***   
       DERIV_LEV            IDRLVL         SECOND      [  2]    ***   
       DEVMEM_SIZE          IDVMEM          50000000           MByte  
       DIAG_MRCC            IEOMST          10D-  0             ***   
       DIFF_TYPE            IDIFTY         RELAXED     [  0]    ***   
       DIRECT               IDIRCT         OFF         [  0]    ***   
       DROPMO               IDRPMO      NONE         
       ECP                  IECP           OFF         [  0]    ***   
       EIGENVECTOR          IVEC                1               ***   
       EL_ANHARM            IELANH         OFF         [  0]    ***   
       EOMFOLLOW            IEOMSR         ENERGY      [  0]    ***   
       EOMIP                IEOMIP         OFF         [  0]    ***   
       EOMLEVEL             HBARFM         SAME        [  0]    ***   
       EOM_MRCC             IMRCCE         NEW         [  1]    ***   
       EOM_NONIT            EOMNON         OFF         [  0]    ***   
       EOM_NSING            IEOMSI          10D-  0             ***   
       EOM_NSTATES          IMRCCD         DAVIDSON    [  0]    ***   
       EOM_NTRIP            IEOMTR          10D-  0             ***   
       EOM_ORDER            IEXORD         ENERGY      [  0]    ***   
       EOM_PROPSTA          IEOMST              0               ***   
       ESTATE_CONV          IEXTOL          10D-  5             ***   
       ESTATE_DIAG          IEXDIG         ITERATIVE   [  0]    ***   
       ESTATE_LOCK          IESLOC         ON          [  1]    ***   
       ESTATE_MAXC          IEXMXC             40               ***   
       ESTATE_PROP          IEXPRP         OFF         [  0]    ***   
       EVAL_HESS            IRECAL              0            # of cyc.
       EXCITATION           IEXCIT              0               ***   
       EXCITE               IEXCIT         NONE        [  0]    ***   
       EXTERN_POT           IEXPOT         OFF         [  0]    ***   
       FCGRADNEW            IFCGNW         OFF         [  0]    ***   
       FC_FIELD             IFINFC              0             x 10-6  
       FD_CALTYPE           IFDCAL         GRADONLY    [  0]    ***   
       FD_PROJECT           IFDPRJ         OFF         [  1]    ***   
       FD_STEPSIZE          IDISFD              0            10-4 bohr
       FD_USEGROUP          IFDGRP         FULL        [  0]    ***   
       FILE_RECSIZ          IFLREC              4096           words  
       FINITE_PERT          IFIPER              0             x 10-6  
       FIXGEOM              IFIXGM         OFF         [  0]    ***   
       FOCK                 IFOCK          AO          [  1]    ***   
       FREQ_ALGORI          IVIALG         STANDARD    [  0]    ***   
       FROZEN_CORE          IFROCO         OFF         [  0]    ***   
       GAMMA_ABCD           IGABCD         STORE       [  0]    ***   
       GAMMA_ABCI           IGABCI         STORE       [  0]    ***   
       GENBAS_1             IGNBS1              0               ***   
       GENBAS_2             IGNBS2              0               ***   
       GENBAS_3             IGNBS3              0               ***   
       GENBAS_4             IGNBS4              0               ***   
       GEO_CONV             ICONTL              5              H/bohr 
       GEO_MAXCYC           IOPTCY             50               ***   
       GEO_MAXSTEP          IMXSTP            300            millibohr
       GEO_METHOD           INR            SINGLE_POINT[  5]    ***   
       GIAO                 IGIAO          OFF         [  1]    ***   
       GIMIC                IGIMIC         OFF         [  0]    ***   
       GRID                 IGRID          OFF         [  0]    ***   
       GRID_ALGO            IGALGO         SERIAL      [  0]    ***   
       GUESS                IGUESS         MOREAD      [  0]    ***   
       HBAR                 IHBAR          OFF         [  0]    ***   
       HESS_TYPE            IHESTP         SCF         [  0]    ***   
       HF2_FILE             IHF2Fl         USE         [  1]    ***   
       HFSTABILITY          ISTABL         OFF         [  0]    ***   
       INCORE               INCORE         OFF         [  0]    ***   
       INPUT_MRCC           IMRCC          ON          [  1]    ***   
       INTEGRALS            INTTYP         VMOL        [  1]    ***   
       JODA_PRINT           IJPRNT              0               ***   
       KEYWORD_OUT          IDMPKW         NO          [  0]    ***   
       LINDEP_TOL           ILINDP              8               ***   
       LINEQ_CONV           IZTACN          10D-  7           cycles  
       LINEQ_EXPOR          ILMAXD              5               ***   
       LINEQ_MAXCY          ILMAXC            100               ***   
       LINEQ_TYPE           ILTYPE         DIIS        [  1]    ***   
       LOCK_ORBOCC          ILOCOC         OFF         [  0]    ***   
       MEMORY_SIZE          IMEMSZ         500000000           words  
       MEM_UNIT             IMEMU          INTEGERWORDS[  0]    ***   
       MRCC                 IMRCCC         OFF         [  0]    ***   
       MULTIPLICTY          IMULTP              1               ***   
       NACOUPLING           IVCOUP         OFF         [  0]    ***   
       NEGEVAL              IDIE           ABORT       [  0]    ***   
       NEWNORM              INEWNO         OFF         [  0]    ***   
       NON-HF               INONHF         OFF         [  0]    ***   
       NTOP_TAMP            ITOPT2             15               ***   
       NUC_MODEL            INUCMO         POINT       [  0]    ***   
       OCCUPATION           IOCCU   ESTIMATED BY SCF 
       OPEN-SHELL           IOPEN          SPIN-ORBITAL[  0]    ***   
       OPTVIB               IOPTVB         OFF         [  0]    ***   
       ORBITALS             IORBTP         STANDARD    [  0]    ***   
       PARALLEL             IPARAL         ON          [  1]    ***   
       PARA_INT             IPINTS         ON          [  1]    ***   
       PARA_PRINT           IPPRIN              0               ***   
       PERT_ORB             IPTORB         STANDARD    [  0]    ***   
       POINTS               IGRDFD              0               ***   
       PRINT                IPRNT               0               ***   
       PROPS                IPROPS         OFF         [  0]    ***   
       PROP_INTEGR          IINTYP         INTERNAL    [  0]    ***   
       PSI                  IPSI           OFF         [  0]    ***   
       QC_ALG               IQCALG         FLM         [  0]    ***   
       QC_LINALG            IQCLIN         TRIDIAG     [  2]    ***   
       QC_MAXCYC            IQCMAX          10D-100           cycles  
       QC_MAXSCFCY          IQCMSC          10D- 15           cycles  
       QC_RTRUST            IQCRTR          10D-  0           x 10-3  
       QC_SKIPSCF           IQCSKI         OFF         [  0]    ***   
       QC_START             IQCSTA          10D-  1             ***   
       QRHFGUESS            IQGUES         OFF         [  0]    ***   
       QUARTIC              IQUART         OFF         [  0]    ***   
       RAMAN_INT            IRAMIN         OFF         [  0]    ***   
       RAMAN_ORB            IRAMRE         UNRELAXED   [  0]    ***   
       RDO                  IRDOFM         ON          [  1]    ***   
       REDUCE_REPR          REDREP         Ir          [  0]    ***   
       REFERENCE            IREFNC         RHF         [  0]    ***   
       RELATIVIST           IRELAT         OFF         [  0]    ***   
       RELAX_DENS           IRDENS         ON          [  1]    ***   
       RESET_FLAGS          IRESET         OFF         [  0]    ***   
       RESTART_CC           ICCRES         OFF         [  0]    ***   
       ROT_EVEC             ROTVEC              0               ***   
       SAVE_INTS            ISVINT         OFF         [  0]    ***   
       SCALE_ON             ISTCRT              0               ***   
       SCF_CONV             ISCFCV          10D- 10             ***   
       SCF_DAMPING          IDAMP               0             x 10-3  
       SCF_EXPORDE          IRPPOR              6               ***   
       SCF_EXPSTAR          IRPPLS              8               ***   
       SCF_EXTRAPO          IRPP           ON          [  1]    ***   
       SCF_MAXCYC           ISCFCY            150              cycles 
       SCF_NOSTOP           ISCFST         OFF         [  0]    ***   
       SCF_PRINT            ISCFPR              0               ***   
       SCF_PROG             ISCFPR         SCF         [  0]    ***   
       SD_FIELD             IFINSD              0             x 10-6  
       SOPERT               IPERSO         OFF         [  0]    ***   
       SPHERICAL            IDFGHI         ON          [  1]    ***   
       SPINORBIT            ISOCAL         OFF         [  0]    ***   
       SPINROTATIO          ISRCON         OFF         [  0]    ***   
       SPIN_FLIP            ISPFLP         OFF         [  0]    ***   
       SPIN_ORBIT           ISPORB         OFF         [  0]    ***   
       SPIN_SCAL            ISCSMP         OFF         [  0]    ***   
       STEEPSCALE           ISTPSC              1000          x 10-3  
       SUBGROUP             ISUBGP         DEFAULT     [  0]    ***   
       SUBGRPAXIS           ISBXYZ         X           [  0]    ***   
       SYMMETRY             ISYM           ON          [  0]    ***   
       SYM_CHECK            ISYMCK         OVERRIDE    [  1]    ***   
       T3_EXTRAPOL          IT3EXT         OFF         [  0]    ***   
       T4_EXTRAPOL          IT4EXP         OFF         [  0]    ***   
       TAMP_SUM             IEVERY              5               ***   
       TESTSUITE            ITESTS         OFF         [  0]    ***   
       THERMOCH             ITHERM         OFF         [  0]    ***   
       TOL_CHOLESK          ITOLCH          10D-  4             ***   
       TRANGRAD             IRESRM         OFF         [  0]    ***   
       TRANS_INV            ITRAIN         IGNORE      [  1]    ***   
       TREAT_PERT           ITREAT         SIMULTANEOUS[  0]    ***   
       TRIP_ALGORI          ITRALG         NORMAL      [  0]    ***   
       UIJ_THRESHO          IUIJTH              1               ***   
       UNITS                IUNITS         ANGSTROM    [  0]    ***   
       UNOS                 IUNOS          OFF         [  0]    ***   
       UPDATE_HESS          IHUPDT         ON          [  1]    ***   
       VIBPHASE             ISETPH         STANDARD    [  0]    ***   
       VIBRATION            IVIB           ANALYTIC    [  1]    ***   
       VIB_ALGORIT          IGEALG         STANDARD    [  0]    ***   
       VNATORB              IVNORB         OFF         [  0]    ***   
       VTRAN                IVTRAN         FULL/PARTIAL[  0]    ***   
       XFIELD               IXEFLD              0             x 10-6  
       XFORM_TOL            IXFTOL          10D- 11             ***   
       YFIELD               IYEFLD              0             x 10-6  
       ZFIELD               IZEFLD              0             x 10-6  
       ZSCALE_EXP           IZEXPS         OFF         [  0]    ***   
    -------------------------------------------------------------------
   3 entries found in Z-matrix 
   Job Title : Hypochlorous acid DBOC calculation                                              
   There are  3 unique internal coordinates.
   Of these,  0 will be optimized.
   User supplied Z-matrix: 
--------------------------------------------------------------------------------
       SYMBOL    BOND      LENGTH    ANGLE     ANGLE     DIHED     ANGLE
                  TO      (ANGST)    WRT      (DEG)      WRT      (DEG)
--------------------------------------------------------------------------------
        O    
        H          1         ROH  
        CL         1         ROCL       2        A    
                  *Initial values for internal coordinates* 
                      Name             Value
                        ROH             0.6000000000
                        ROCL            1.6830000000
                        A             107.0000000000
--------------------------------------------------------------------------------
  read isotopes from ZMAT file 
   Rotational constants (in cm-1): 
          0.4994710679             0.5040692686            54.7535943516
   Rotational constants (in MHz): 
      14973.7680124077         15111.6186207489       1641471.6934656927
********************************************************************************
   The full molecular point group is C s .
   The largest Abelian subgroup of the full molecular point group is C s .
   The computational point group is C s .
********************************************************************************
--------------------------------------------------------------------------------
   Analysis of internal coordinates specified by Z-matrix 
--------------------------------------------------------------------------------
   *The nuclear repulsion energy is   54.442716794525658 a.u.
   *There are   3 degrees of freedom within the tot. symm. molecular subspace.
   *Z-matrix requests optimization of   0 coordinates.
   *The optimization is constrained.
   *The following   3 parameters can have non-zero 
    derivatives within the totally symmetric subspace:
             A    [ 3]  ROCL [ 2]  ROH  [ 1]
   *The following   0 parameters are to be optimized:

   *The following coordinates must be varied in an  unconstrained optimization.
             A    [ 3]  ROCL [ 2]  ROH  [ 1]
--------------------------------------------------------------------------------


 ----------------------------------------------------------------
         Coordinates used in calculation (QCOMP) 
 ----------------------------------------------------------------
 Z-matrix   Atomic            Coordinates (in bohr)
  Symbol    Number           X              Y              Z
 ----------------------------------------------------------------
     O         8        -2.17118648     0.07048370     0.00000000
     H         1        -2.52767750    -1.00585176     0.00000000
     CL       17         1.00837249    -0.00307468     0.00000000
 ----------------------------------------------------------------
 
   Interatomic distance matrix (Angstroms) 
 
                 O             H             CL   
                [ 1]        [ 2]        [ 3]
  O    [ 1]     0.00000
  H    [ 2]     0.60000     0.00000
  CL   [ 3]     1.68300     1.94498     0.00000
 rotcon2
   Rotational constants (in cm-1): 
         54.7535943516             0.5040692686             0.4994710679
   Rotational constants (in MHz): 
    1641471.6934657344         15111.6186207489         14973.7680124077
  ECPDATA file not present.   Using default ECPDATA. 
  @GTFLGS-I, Hessian will be transformed to curvilinear coordinates.
  There are  157 basis functions.
 @CHECKOUT-I, Total execution time (CPU/WALL):        0.19/       0.24 seconds.
--executable xjoda finished with status     0 in        0.29 seconds (walltime).
 --invoking executable--
/home/asmola/.local/bin/xvmol
 SERIAL VERSION OF MOLECULE STARTED
********************************************************************************
                    INPUT FROM MOL FILE
********************************************************************************
INTGRL        1    0    1    0    0    0    0    0    0                         
         *** CFOUR Program System (Release V0.1) ***                            
Hypochlorous acid DBOC calculation                                              
    3    1 Z          0.10E-08              0    0                              
   9999.00      3.00                                                            
          8.00000000    1    4    1    1    1    1                              
O #1  -2.171186483863337   0.070483702328177   0.000000000000000                
   13    7                                                                      
   15330.0000000000       5.080000000000000E-004 -1.150000000000000E-004        
  0.000000000000000E+000  0.000000000000000E+000  0.000000000000000E+000        
  0.000000000000000E+000  0.000000000000000E+000                                
   2299.00000000000       3.929000000000000E-003 -8.950000000000000E-004        
  0.000000000000000E+000  0.000000000000000E+000  0.000000000000000E+000        
  0.000000000000000E+000  0.000000000000000E+000                                
   522.400000000000       2.024300000000000E-002 -4.636000000000000E-003        
  0.000000000000000E+000  0.000000000000000E+000  0.000000000000000E+000        
  0.000000000000000E+000  0.000000000000000E+000                                
   147.300000000000       7.918100000000000E-002 -1.872400000000000E-002        
  0.000000000000000E+000  0.000000000000000E+000  0.000000000000000E+000        
  0.000000000000000E+000  0.000000000000000E+000                                
   47.5500000000000       0.230687000000000      -5.846300000000000E-002        
  0.000000000000000E+000  0.000000000000000E+000  0.000000000000000E+000        
  0.000000000000000E+000  0.000000000000000E+000                                
   16.7600000000000       0.433118000000000      -0.136463000000000             
  0.000000000000000E+000  0.000000000000000E+000  0.000000000000000E+000        
  0.000000000000000E+000  0.000000000000000E+000                                
   6.20700000000000       0.350260000000000      -0.175740000000000             
  0.000000000000000E+000  0.000000000000000E+000  0.000000000000000E+000        
  0.000000000000000E+000  0.000000000000000E+000                                
   1.75200000000000       4.272800000000000E-002  0.160934000000000             
   1.00000000000000       0.000000000000000E+000  0.000000000000000E+000        
  0.000000000000000E+000  0.000000000000000E+000                                
  0.688200000000000      -8.154000000000000E-003  0.603418000000000             
  0.000000000000000E+000  0.000000000000000E+000  0.000000000000000E+000        
  0.000000000000000E+000  0.000000000000000E+000                                
  0.238400000000000       2.381000000000000E-003  0.378765000000000             
  0.000000000000000E+000   1.00000000000000       0.000000000000000E+000        
  0.000000000000000E+000  0.000000000000000E+000                                
   7.84500000000000       0.000000000000000E+000  0.000000000000000E+000        
  0.000000000000000E+000  0.000000000000000E+000   1.00000000000000             
  0.000000000000000E+000  0.000000000000000E+000                                
   21.0320000000000       0.000000000000000E+000  0.000000000000000E+000        
  0.000000000000000E+000  0.000000000000000E+000  0.000000000000000E+000        
   1.00000000000000       0.000000000000000E+000                                
  7.376000000000001E-002  0.000000000000000E+000  0.000000000000000E+000        
  0.000000000000000E+000  0.000000000000000E+000  0.000000000000000E+000        
  0.000000000000000E+000   1.00000000000000                                     
    8    6                                                                      
   34.4600000000000       1.592800000000000E-002  0.000000000000000E+000        
  0.000000000000000E+000  0.000000000000000E+000  0.000000000000000E+000        
  0.000000000000000E+000                                                        
   7.74900000000000       9.974000000000000E-002  0.000000000000000E+000        
  0.000000000000000E+000  0.000000000000000E+000  0.000000000000000E+000        
  0.000000000000000E+000                                                        
   2.28000000000000       0.310492000000000       0.000000000000000E+000        
  0.000000000000000E+000  0.000000000000000E+000  0.000000000000000E+000        
  0.000000000000000E+000                                                        
  0.715600000000000       0.491026000000000        1.00000000000000             
  0.000000000000000E+000  0.000000000000000E+000  0.000000000000000E+000        
  0.000000000000000E+000                                                        
  0.214000000000000       0.336337000000000       0.000000000000000E+000        
   1.00000000000000       0.000000000000000E+000  0.000000000000000E+000        
  0.000000000000000E+000                                                        
   15.1590000000000       0.000000000000000E+000  0.000000000000000E+000        
  0.000000000000000E+000   1.00000000000000       0.000000000000000E+000        
  0.000000000000000E+000                                                        
   57.4370000000000       0.000000000000000E+000  0.000000000000000E+000        
  0.000000000000000E+000  0.000000000000000E+000   1.00000000000000             
  0.000000000000000E+000                                                        
  5.974000000000000E-002  0.000000000000000E+000  0.000000000000000E+000        
  0.000000000000000E+000  0.000000000000000E+000  0.000000000000000E+000        
   1.00000000000000                                                             
    4    4                                                                      
   2.31400000000000        1.00000000000000       0.000000000000000E+000        
  0.000000000000000E+000  0.000000000000000E+000                                
  0.645000000000000       0.000000000000000E+000   1.00000000000000             
  0.000000000000000E+000  0.000000000000000E+000                                
   15.8580000000000       0.000000000000000E+000  0.000000000000000E+000        
   1.00000000000000       0.000000000000000E+000                                
  0.214000000000000       0.000000000000000E+000  0.000000000000000E+000        
  0.000000000000000E+000   1.00000000000000                                     
    2    2                                                                      
   1.42800000000000        1.00000000000000       0.000000000000000E+000        
  0.500000000000000       0.000000000000000E+000   1.00000000000000             
          1.00000000    1    3    1    1    1                                   
H #2  -2.527677501469010  -1.005851761463553   0.000000000000000                
    6    4                                                                      
   33.8700000000000       6.068000000000000E-003  0.000000000000000E+000        
  0.000000000000000E+000  0.000000000000000E+000                                
   5.09500000000000       4.530800000000000E-002  0.000000000000000E+000        
  0.000000000000000E+000  0.000000000000000E+000                                
   1.15900000000000       0.202822000000000       0.000000000000000E+000        
  0.000000000000000E+000  0.000000000000000E+000                                
  0.325800000000000       0.503903000000000        1.00000000000000             
  0.000000000000000E+000  0.000000000000000E+000                                
  0.102700000000000       0.383421000000000       0.000000000000000E+000        
   1.00000000000000       0.000000000000000E+000                                
  2.526000000000000E-002  0.000000000000000E+000  0.000000000000000E+000        
  0.000000000000000E+000   1.00000000000000                                     
    3    3                                                                      
   1.40700000000000        1.00000000000000       0.000000000000000E+000        
  0.000000000000000E+000                                                        
  0.388000000000000       0.000000000000000E+000   1.00000000000000             
  0.000000000000000E+000                                                        
  0.102000000000000       0.000000000000000E+000  0.000000000000000E+000        
   1.00000000000000                                                             
    2    2                                                                      
   1.05700000000000        1.00000000000000       0.000000000000000E+000        
  0.247000000000000       0.000000000000000E+000   1.00000000000000             
         17.00000000    1    4    1    1    1    1                              
CL#3   1.008372485984509  -0.003074677115613   0.000000000000000                
   18    8                                                                      
   456100.000000000       4.930000000000000E-005 -1.380000000000000E-005        
  4.200000000000000E-006  0.000000000000000E+000  0.000000000000000E+000        
  0.000000000000000E+000  0.000000000000000E+000  0.000000000000000E+000        
   68330.0000000000       3.830000000000000E-004 -1.073000000000000E-004        
  3.240000000000000E-005  0.000000000000000E+000  0.000000000000000E+000        
  0.000000000000000E+000  0.000000000000000E+000  0.000000000000000E+000        
   15550.0000000000       2.008500000000000E-003 -5.651000000000000E-004        
  1.711000000000000E-004  0.000000000000000E+000  0.000000000000000E+000        
  0.000000000000000E+000  0.000000000000000E+000  0.000000000000000E+000        
   4405.00000000000       8.385600000000000E-003 -2.361400000000000E-003        
  7.142000000000000E-004  0.000000000000000E+000  0.000000000000000E+000        
  0.000000000000000E+000  0.000000000000000E+000  0.000000000000000E+000        
   1439.00000000000       2.947030000000000E-002 -8.458900000000000E-003        
  2.567000000000000E-003  0.000000000000000E+000  0.000000000000000E+000        
  0.000000000000000E+000  0.000000000000000E+000  0.000000000000000E+000        
   520.400000000000       8.783249999999999E-002 -2.596380000000000E-002        
  7.885500000000000E-003  0.000000000000000E+000  0.000000000000000E+000        
  0.000000000000000E+000  0.000000000000000E+000  0.000000000000000E+000        
   203.100000000000       0.211473000000000      -6.863619999999999E-002        
  2.108670000000000E-002  0.000000000000000E+000  0.000000000000000E+000        
  0.000000000000000E+000  0.000000000000000E+000  0.000000000000000E+000        
   83.9600000000000       0.365364000000000      -0.141874000000000             
  4.422640000000000E-002  0.000000000000000E+000  0.000000000000000E+000        
  0.000000000000000E+000  0.000000000000000E+000  0.000000000000000E+000        
   36.2000000000000       0.340884000000000      -0.199319000000000             
  6.516700000000000E-002  0.000000000000000E+000  0.000000000000000E+000        
  0.000000000000000E+000  0.000000000000000E+000  0.000000000000000E+000        
   15.8300000000000       0.102133000000000      -1.956620000000000E-002        
  6.030100000000000E-003  0.000000000000000E+000  0.000000000000000E+000        
  0.000000000000000E+000  0.000000000000000E+000  0.000000000000000E+000        
   6.33400000000000       3.116800000000000E-003  0.499741000000000             
 -0.206495000000000       0.000000000000000E+000  0.000000000000000E+000        
  0.000000000000000E+000  0.000000000000000E+000  0.000000000000000E+000        
   2.69400000000000       1.057500000000000E-003  0.563736000000000             
 -0.405871000000000       0.000000000000000E+000  0.000000000000000E+000        
  0.000000000000000E+000  0.000000000000000E+000  0.000000000000000E+000        
  0.976800000000000      -3.780000000000000E-004  7.903250000000001E-002        
  7.595580000000000E-002   1.00000000000000       0.000000000000000E+000        
  0.000000000000000E+000  0.000000000000000E+000  0.000000000000000E+000        
  0.431300000000000       1.561000000000000E-004 -8.350900000000000E-003        
  0.725661000000000       0.000000000000000E+000  0.000000000000000E+000        
  0.000000000000000E+000  0.000000000000000E+000  0.000000000000000E+000        
  0.162500000000000      -5.140000000000000E-005  2.324600000000000E-003        
  0.394423000000000       0.000000000000000E+000   1.00000000000000             
  0.000000000000000E+000  0.000000000000000E+000  0.000000000000000E+000        
   15.0640000000000       0.000000000000000E+000  0.000000000000000E+000        
  0.000000000000000E+000  0.000000000000000E+000  0.000000000000000E+000        
   1.00000000000000       0.000000000000000E+000  0.000000000000000E+000        
   2.87400000000000       0.000000000000000E+000  0.000000000000000E+000        
  0.000000000000000E+000  0.000000000000000E+000  0.000000000000000E+000        
  0.000000000000000E+000   1.00000000000000       0.000000000000000E+000        
  5.910000000000000E-002  0.000000000000000E+000  0.000000000000000E+000        
  0.000000000000000E+000  0.000000000000000E+000  0.000000000000000E+000        
  0.000000000000000E+000  0.000000000000000E+000   1.00000000000000             
   12    7                                                                      
   663.300000000000       2.404500000000000E-003 -6.521000000000000E-004        
  0.000000000000000E+000  0.000000000000000E+000  0.000000000000000E+000        
  0.000000000000000E+000  0.000000000000000E+000                                
   156.800000000000       1.921480000000000E-002 -5.194500000000000E-003        
  0.000000000000000E+000  0.000000000000000E+000  0.000000000000000E+000        
  0.000000000000000E+000  0.000000000000000E+000                                
   49.9800000000000       8.850970000000000E-002 -2.469380000000000E-002        
  0.000000000000000E+000  0.000000000000000E+000  0.000000000000000E+000        
  0.000000000000000E+000  0.000000000000000E+000                                
   18.4200000000000       0.256020000000000      -7.281670000000000E-002        
  0.000000000000000E+000  0.000000000000000E+000  0.000000000000000E+000        
  0.000000000000000E+000  0.000000000000000E+000                                
   7.24000000000000       0.436927000000000      -0.134030000000000             
  0.000000000000000E+000  0.000000000000000E+000  0.000000000000000E+000        
  0.000000000000000E+000  0.000000000000000E+000                                
   2.92200000000000       0.350334000000000      -9.477420000000000E-002        
  0.000000000000000E+000  0.000000000000000E+000  0.000000000000000E+000        
  0.000000000000000E+000  0.000000000000000E+000                                
   1.02200000000000       5.854950000000000E-002  0.262289000000000             
   1.00000000000000       0.000000000000000E+000  0.000000000000000E+000        
  0.000000000000000E+000  0.000000000000000E+000                                
  0.381800000000000      -4.584200000000000E-003  0.564667000000000             
  0.000000000000000E+000  0.000000000000000E+000  0.000000000000000E+000        
  0.000000000000000E+000  0.000000000000000E+000                                
  0.130100000000000       2.269700000000000E-003  0.341250000000000             
  0.000000000000000E+000   1.00000000000000       0.000000000000000E+000        
  0.000000000000000E+000  0.000000000000000E+000                                
   9.48000000000000       0.000000000000000E+000  0.000000000000000E+000        
  0.000000000000000E+000  0.000000000000000E+000   1.00000000000000             
  0.000000000000000E+000  0.000000000000000E+000                                
   3.66800000000000       0.000000000000000E+000  0.000000000000000E+000        
  0.000000000000000E+000  0.000000000000000E+000  0.000000000000000E+000        
   1.00000000000000       0.000000000000000E+000                                
  4.190000000000000E-002  0.000000000000000E+000  0.000000000000000E+000        
  0.000000000000000E+000  0.000000000000000E+000  0.000000000000000E+000        
  0.000000000000000E+000   1.00000000000000                                     
    5    5                                                                      
   1.04600000000000        1.00000000000000       0.000000000000000E+000        
  0.000000000000000E+000  0.000000000000000E+000  0.000000000000000E+000        
  0.344000000000000       0.000000000000000E+000   1.00000000000000             
  0.000000000000000E+000  0.000000000000000E+000  0.000000000000000E+000        
   17.9570000000000       0.000000000000000E+000  0.000000000000000E+000        
   1.00000000000000       0.000000000000000E+000  0.000000000000000E+000        
   5.76000000000000       0.000000000000000E+000  0.000000000000000E+000        
  0.000000000000000E+000   1.00000000000000       0.000000000000000E+000        
  0.135000000000000       0.000000000000000E+000  0.000000000000000E+000        
  0.000000000000000E+000  0.000000000000000E+000   1.00000000000000             
    3    3                                                                      
  0.706000000000000        1.00000000000000       0.000000000000000E+000        
  0.000000000000000E+000                                                        
   11.7790000000000       0.000000000000000E+000   1.00000000000000             
  0.000000000000000E+000                                                        
  0.312000000000000       0.000000000000000E+000  0.000000000000000E+000        
   1.00000000000000                                                             
FINISH                                                                          
 
********************************************************************************
 ONE- AND TWO-ELECTRON INTEGRALS OVER SYMMETRY-ADAPTED AOS ARE CALCULATED.

  SPHERICAL HARMONICS ARE USED.
  
  INTEGRALS LESS THAN  0.10E-13 ARE NEGLECTED.

  NUCLEAR REPULSION ENERGY :   54.4427167945 A.U.
  @MOLECU-I, ONE ELECTRON INTEGRALS (CPU/WALL):        0.04/       0.05 SECONDS.
  @TWOEL-I,   14251343 INTEGRALS OF SYMMETRY TYPE  I I I I
  @TWOEL-I,   13499247 INTEGRALS OF SYMMETRY TYPE  I J I J
  @TWOEL-I,    6957988 INTEGRALS OF SYMMETRY TYPE  I I J J
  @TWOEL-I, TOTAL NUMBER OF 2-E INTEGRALS   34708578.
  @MOLECU-I, TWO ELECTRON INTEGRALS (CPU/WALL):       54.86/       8.13 SECONDS.
 @CHECKOUT-I, Total execution time (CPU/WALL):       54.91/       8.20 seconds.

Running with 14 threads/proc

--executable xvmol finished with status     0 in        8.24 seconds (walltime).
 --invoking executable--
/home/asmola/.local/bin/xvmol2ja
 @GETMEM-I,  Allocated    3814 MB of main memory.
 @CHECKOUT-I, Total execution time (CPU/WALL):        0.05/       0.03 seconds.
--executable xvmol2ja finished with status     0 in        0.06 seconds (walltime).
 --invoking executable--
/home/asmola/.local/bin/xvscf
  There are  157 functions in the AO basis.

  There are 2 irreducible representations.

       Irrep        # of functions
         1                104
         2                 53


  Parameters for SCF calculation: 
        SCF reference function:  RHF  
  Maximum number of iterations:  150
     Full symmetry point group: C s 
     Computational point group: C s 
        Initial density matrix: MOREAD                 
     SCF convergence tolerance: 10**(-10)
  DIIS convergence acceleration:  ON
          Latest start for DIIS:   8
                     DIIS order:   6

  Memory information:    1209746 words required.
  Fock matrices are constructed from AO integral file.
 @GETMEM-I,  Allocated       9 MB of main memory.
  Initialization and symmetry analysis required      0.002 seconds.

  @INITGES-I, Occupancies from core Hamiltonian:

          Alpha population by irrep:  10    3
           Beta population by irrep:  10    3


 total no. of electrons in initial guess :  0.000000000000000E+000
  --------------------------------------------------------------------
  Iteration         Total Energy            Largest Density Difference
  --------------------------------------------------------------------
       0            54.442716794525658              0.0000000000D+00
   current occupation vector 
    10  3
    10  3
       1          -363.328355001281125              0.1327155554D+02
   current occupation vector 
    10  3
    10  3
       2          -333.965265246841454              0.1325633394D+02
   current occupation vector 
    10  3
    10  3
       3          -419.096214920842840              0.1201659750D+02
   current occupation vector 
    10  3
    10  3
       4          -330.299795167828222              0.1317393714D+02
   current occupation vector 
    10  3
    10  3
       5          -418.681172877724009              0.1317362195D+02
   current occupation vector 
    10  3
    10  3
       6          -330.195962444552890              0.1319489906D+02
   current occupation vector 
    10  3
    10  3
       7          -418.671637608330002              0.1319489270D+02
   current occupation vector 
    10  3
    10  3
       8          -330.193487120224745              0.1319543102D+02
   current occupation vector 
    10  3
    10  3
       9          -450.851529110903869              0.1319992522D+02
   current occupation vector 
    10  3
    10  3
      10          -475.469727501678051              0.2895910970D+01
   current occupation vector 
    10  3
    10  3
      11          -494.133530384287781              0.2215276396D+01
   current occupation vector 
    10  3
    10  3
      12          -527.109752359454433              0.2811384906D+01
   current occupation vector 
    10  3
    10  3
      13          -528.647843884202416              0.5951908757D+00
   current occupation vector 
    10  3
    10  3
      14          -533.738637726022034              0.1909105423D+01
   current occupation vector 
    10  3
    10  3
      15          -534.558533752540825              0.1097838688D+01
   current occupation vector 
    10  3
    10  3
      16          -534.595433798523800              0.1954764647D+00
   current occupation vector 
    10  3
    10  3
      17          -534.599896924681047              0.5176163078D-01
   current occupation vector 
    10  3
    10  3
      18          -534.600763789160624              0.3870885866D-01
   current occupation vector 
    10  3
    10  3
      19          -534.600860552692211              0.1082072241D-01
   current occupation vector 
    10  3
    10  3
      20          -534.600877246862638              0.5160221569D-02
   current occupation vector 
    10  3
    10  3
      21          -534.600879793217359              0.1955763651D-02
   current occupation vector 
    10  3
    10  3
      22          -534.600880286894949              0.9903958183D-03
   current occupation vector 
    10  3
    10  3
      23          -534.600880339003083              0.2940326474D-03
   current occupation vector 
    10  3
    10  3
      24          -534.600880347664088              0.1659540689D-03
   current occupation vector 
    10  3
    10  3
      25          -534.600880348140549              0.3307516429D-04
   current occupation vector 
    10  3
    10  3
      26          -534.600880348169085              0.8579199944D-05
   current occupation vector 
    10  3
    10  3
      27          -534.600880348176361              0.4499936162D-05
   current occupation vector 
    10  3
    10  3
      28          -534.600880348177725              0.4808839614D-06
   current occupation vector 
    10  3
    10  3
      29          -534.600880348172495              0.2215572785D-06
   current occupation vector 
    10  3
    10  3
      30          -534.600880348177270              0.8061826262D-07
   current occupation vector 
    10  3
    10  3
      31          -534.600880348182386              0.3869014842D-07
   current occupation vector 
    10  3
    10  3
      32          -534.600880348178634              0.9831369496D-08
   current occupation vector 
    10  3
    10  3
      33          -534.600880348180340              0.2908444263D-08
   current occupation vector 
    10  3
    10  3
      34          -534.600880348181136              0.1279656880D-08
   current occupation vector 
    10  3
    10  3
      35          -534.600880348179771              0.9672076473D-09
   current occupation vector 
    10  3
    10  3
      36          -534.600880348179203              0.2968112423D-09
   current occupation vector 
    10  3
    10  3
      37          -534.600880348180794              0.3166362728D-09
   current occupation vector 
    10  3
    10  3
      38          -534.600880348177611              0.1225671786D-09
   current occupation vector 
    10  3
    10  3
      39          -534.600880348180794              0.1113826809D-09
   current occupation vector 
    10  3
    10  3

  SCF has converged.

 Density matrix saved to file den.dat
 total electron number:   25.9999999999999     
     E(SCF)=      -534.600880348181363              0.2913722041D-10

  Eigenvector printing suppressed.

 @PUTMOS-I, Writing converged MOs to NEWMOS. 
 @PUTMOS-I, Symmetry   1 Full Blocks 26 Partial Blocksize   0
 @PUTMOS-I, Symmetry   2 Full Blocks 13 Partial Blocksize   1
 @PUTFOCK-I, Writing converged Fock matrix to NEWFOCK. 
 @PUTFOCK-I, Symmetry   1 Full Blocks 26 Partial Blocksize   0
 @PUTFOCK-I, Symmetry   2 Full Blocks 13 Partial Blocksize   1


 
  ORBITAL EIGENVALUES (ALPHA)  (1H = 27.2113834 eV)

       MO #        E(hartree)               E(eV)           FULLSYM    COMPSYM
       ----   --------------------   --------------------   -------   ---------
    1     1        -104.9041214696       -2854.5862695481     A'        A'  (1)
    2     2         -20.6017476689        -560.6020545287     A'        A'  (1)
    3     3         -10.6235973632        -289.0827809385     A'        A'  (1)
    4     4          -8.0903178591        -220.1487410930     A'        A'  (1)
    5     5          -8.0879166437        -220.0834006979     A'        A'  (1)
    6   105          -8.0877563856        -220.0790398547     A''       A'' (2)
    7     6          -1.5631895784         -42.5365509448     A'        A'  (1)
    8     7          -1.1154991065         -30.3542738688     A'        A'  (1)
    9     8          -0.8038847577         -21.8748163517     A'        A'  (1)
   10   106          -0.6314907870         -17.1837379184     A''       A'' (2)
   11     9          -0.6232650862         -16.9599052206     A'        A'  (1)
   12    10          -0.4839792797         -13.1697457363     A'        A'  (1)
   13   107          -0.4565302686         -12.4228201732     A''       A'' (2)
  +++++++++++++++++++++++++++++++++++++++++++++++++++++++++++++++++++++++++++++
   14    11           0.0336450430           0.9155281636     A'        A'  (1)
   15    12           0.0585702154           1.5937765869     A'        A'  (1)
   16    13           0.1085284768           2.9532099909     A'        A'  (1)
   17   108           0.1139371202           3.1003866600     A''       A'' (2)
   18    14           0.1355365259           3.6881363701     A'        A'  (1)
   19    15           0.1554245715           4.2293176038     A'        A'  (1)
   20    16           0.1681630208           4.5759484318     A'        A'  (1)
   21   109           0.1760390484           4.7902660405     A''       A'' (2)
   22    17           0.1831850118           4.9847175882     A'        A'  (1)
   23    18           0.2644482393           7.1960024298     A'        A'  (1)
   24   110           0.2808914224           7.6434441884     A''       A'' (2)
   25    19           0.3072858738           8.3616737246     A'        A'  (1)
   26    20           0.3344299936           9.1003027776     A'        A'  (1)
   27   111           0.3893362473          10.5943778967     A''       A'' (2)
   28    21           0.3903720610          10.6225638200     A'        A'  (1)
   29   112           0.4139575687          11.2643581142     A''       A'' (2)
   30    22           0.4279610314          11.6454117062     A'        A'  (1)
   31    23           0.4848026366          13.1921504166     A'        A'  (1)
   32    24           0.4956303760          13.4867881855     A'        A'  (1)
   33   113           0.6083677382          16.5545277729     A''       A'' (2)
   34    25           0.6281580452          17.0930494042     A'        A'  (1)
   35    26           0.6644544464          18.0807246937     A'        A'  (1)
   36    27           0.7238153807          19.6960178351     A'        A'  (1)
   37   114           0.7360715048          20.0295239266     A''       A'' (2)
   38    28           0.7427000866          20.2098968084     A'        A'  (1)
   39   115           0.7731467521          21.0383926951     A''       A'' (2)
   40    29           0.8047655100          21.8987828398     A'        A'  (1)
   41    30           0.8459523863          23.0195347205     A'        A'  (1)
   42   116           0.8571772005          23.3249774436     A''       A'' (2)
   43    31           0.9034078541          24.5829774852     A'        A'  (1)
   44   117           0.9099003867          24.7596482771     A''       A'' (2)
   45    32           0.9244590482          25.1558095988     A'        A'  (1)
   46   118           0.9400155876          25.5791245550     A''       A'' (2)
   47    33           0.9487287713          25.8162223380     A'        A'  (1)
   48    34           0.9802942125          26.6751616612     A'        A'  (1)
   49    35           0.9993324942          27.1932196433     A'        A'  (1)
   50   119           1.0335729228          28.1249490736     A''       A'' (2)
   51   120           1.0884223805          29.6174786971     A''       A'' (2)
   52    36           1.1182412040          30.4288901352     A'        A'  (1)
   53    37           1.1900643023          32.3832960013     A'        A'  (1)
   54   121           1.2377214006          33.6801115742     A''       A'' (2)
   55    38           1.2452507419          33.8849953681     A'        A'  (1)
   56    39           1.3337491339          36.2931590429     A'        A'  (1)
   57    40           1.3884385291          37.7813331437     A'        A'  (1)
   58   122           1.4467182224          39.3672042226     A''       A'' (2)
   59    41           1.4635949295          39.8264427700     A'        A'  (1)
   60   123           1.5048570490          40.9492421230     A''       A'' (2)
   61    42           1.5535575891          42.2744511914     A'        A'  (1)
   62    43           1.6796521609          45.7056589302     A'        A'  (1)
   63   124           1.7443166997          47.4652704878     A''       A'' (2)
   64    44           1.7800427126          48.4374247197     A'        A'  (1)
   65    45           1.8281341109          49.7460581989     A'        A'  (1)
   66   125           2.1693533428          59.0311055415     A''       A'' (2)
   67    46           2.2204240268          60.4208095027     A'        A'  (1)
   68    47           2.2413549202          60.9903680695     A'        A'  (1)
   69    48           2.2942102105          62.4286336370     A'        A'  (1)
   70   126           2.3108385642          62.8811141448     A''       A'' (2)
   71   127           2.3451440091          63.8146127600     A''       A'' (2)
   72    49           2.3490334862          63.9204508112     A'        A'  (1)
   73    50           2.4060715949          65.4725366557     A'        A'  (1)
   74    51           2.4400020471          66.3958311995     A'        A'  (1)
   75   128           2.4534013441          66.7604446092     A''       A'' (2)
   76    52           2.4715947161          67.2555114301     A'        A'  (1)
   77   129           2.4735227595          67.3079761583     A''       A'' (2)
   78   130           2.5230320395          68.6551921583     A''       A'' (2)
   79    53           2.5617490748          69.7087362481     A'        A'  (1)
   80   131           2.6216443697          71.3385700814     A''       A'' (2)
   81    54           2.7377762095          74.4986781003     A'        A'  (1)
   82    55           2.8317607703          77.0561280165     A'        A'  (1)
   83   132           2.8926520760          78.7130646829     A''       A'' (2)
   84    56           2.9392595261          79.9813178765     A'        A'  (1)
   85    57           2.9788393446          81.0583394922     A'        A'  (1)
   86   133           3.0466064804          82.9023770069     A''       A'' (2)
   87    58           3.0487989818          82.9620380022     A'        A'  (1)
   88    59           3.1232089768          84.9868369048     A'        A'  (1)
   89   134           3.1567570477          85.8997263247     A''       A'' (2)
   90    60           3.2618546555          88.7595776257     A'        A'  (1)
   91    61           3.3615064528          91.4712408892     A'        A'  (1)
   92   135           3.3762183784          91.8715727380     A''       A'' (2)
   93    62           3.5287007850          96.0208299655     A'        A'  (1)
   94    63           3.9753235062         108.1740520668     A'        A'  (1)
   95    64           4.1015524197         111.6089154269     A'        A'  (1)
   96   136           4.3506159651         118.3862790521     A''       A'' (2)
   97    65           4.5657262844         124.2397284230     A'        A'  (1)
   98   137           4.6446149153         126.3863972051     A''       A'' (2)
   99    66           4.6993707140         127.8763782385     A'        A'  (1)
  100   138           4.7101158829         128.1687691475     A''       A'' (2)
  101    67           4.9552862966         134.8401952749     A'        A'  (1)
  102    68           5.2846022449         143.8013378024     A'        A'  (1)
  103   139           5.8028121968         157.9025474856     A''       A'' (2)
  104    69           5.9907447865         163.0164532376     A'        A'  (1)
  105    70           6.1845986160         168.2914841149     A'        A'  (1)
  106    71           6.4213167888         174.7329130736     A'        A'  (1)
  107   140           6.7067472928         182.4998719506     A''       A'' (2)
  108    72           6.7117375014         182.6356624301     A'        A'  (1)
  109    73           6.8359265441         186.0150180852     A'        A'  (1)
  110   141           6.9021098477         187.8159573360     A''       A'' (2)
  111   142           6.9181171893         188.2515392445     A''       A'' (2)
  112    74           6.9542571845         189.2349585088     A'        A'  (1)
  113    75           7.0523163181         191.9032831891     A'        A'  (1)
  114   143           7.1526221355         194.6327432452     A''       A'' (2)
  115    76           7.5780863180         206.2102122372     A'        A'  (1)
  116    77           9.1902518665         250.0794670814     A'        A'  (1)
  117   144           9.2485472543         251.6657652305     A''       A'' (2)
  118    78           9.2810349277         252.5497997665     A'        A'  (1)
  119    79          10.3374362894         281.2959422442     A'        A'  (1)
  120   145          10.3377431730         281.3042929723     A''       A'' (2)
  121   146          10.3751860762         282.3231661662     A''       A'' (2)
  122    80          10.4444548291         284.2080647591     A'        A'  (1)
  123    81          10.6207341433         289.0048687619     A'        A'  (1)
  124    82          11.9770983987         325.9134165464     A'        A'  (1)
  125   147          12.6679591768         344.7126940545     A''       A'' (2)
  126    83          12.7280288628         346.3472733118     A'        A'  (1)
  127    84          13.2294478664         359.9915780627     A'        A'  (1)
  128    85          18.3017125881         498.0149181112     A'        A'  (1)
  129   148          26.5226177258         721.7171197079     A''       A'' (2)
  130    86          26.8248483649         729.9412335050     A'        A'  (1)
  131    87          28.6444128608         779.4541006232     A'        A'  (1)
  132    88          30.5379670882         830.9803306943     A'        A'  (1)
  133   149          36.8827597548        1003.6309165383     A''       A'' (2)
  134    89          36.8828526933        1003.6334455228     A'        A'  (1)
  135   150          36.8833751132        1003.6476612903     A''       A'' (2)
  136    90          36.8885280043        1003.7878785858     A'        A'  (1)
  137   151          36.8918972814        1003.8795612785     A''       A'' (2)
  138    91          36.8919451332        1003.8808633925     A'        A'  (1)
  139    92          36.8958319176        1003.9866281726     A'        A'  (1)
  140   152          43.9503934577        1195.9510069584     A''       A'' (2)
  141    93          44.0542123482        1198.7760625909     A'        A'  (1)
  142   153          44.5000541327        1210.9080343248     A''       A'' (2)
  143    94          44.5275103624        1211.6551563184     A'        A'  (1)
  144    95          44.9001143440        1221.7942261196     A'        A'  (1)
  145    96          46.4698556719        1264.5090592305     A'        A'  (1)
  146   154          46.4700429466        1264.5141552343     A''       A'' (2)
  147   155          46.4941982957        1265.1714557004     A''       A'' (2)
  148    97          46.5286785316        1266.1097106189     A'        A'  (1)
  149    98          46.6149978762        1268.4585793995     A'        A'  (1)
  150   156          55.0069197882        1496.8143840105     A''       A'' (2)
  151    99          55.0704801826        1498.5439502703     A'        A'  (1)
  152   100          55.6567240362        1514.4964565371     A'        A'  (1)
  153   101         103.9402249979        2828.3573131010     A'        A'  (1)
  154   157         138.5923978983        3771.2908755353     A''       A'' (2)
  155   102         138.8032594568        3777.0287102482     A'        A'  (1)
  156   103         140.7914692739        3831.1306498616     A'        A'  (1)
  157   104         150.9615964173        4107.8738787859     A'        A'  (1)


  VSCF finished.

 @CHECKOUT-I, Total execution time (CPU/WALL):       66.18/      13.30 seconds.
--executable xvscf finished with status     0 in       13.34 seconds (walltime).
 --invoking executable--
/home/asmola/.local/bin/xvtran
 @GETMEM-I,  Allocated    3814 MB of main memory.
  Full RHF integral transformation
  Transformation of IIII integrals :
  1 pass through the AO integral file was required.
    14251343 AO integrals were read.
    15933126 MO integrals were written to HF2.
  Transformation of IIJJ integrals :
  1 pass through the AO integral file was required.
     6957988 AO integrals were read.
     7813260 MO integrals were written to HF2.
  Transformation of IJIJ integrals :
  1 pass through the AO integral file was required.
    13499247 AO integrals were read.
    15193828 MO integrals were written to HF2.
  Summary of active molecular orbitals: 
------------------------------------------------------------------------
 
  Index      Eigenvalue    Symmetry    Index      Eigenvalue    Symmetry
------------------------------------------------------------------------
     1      -104.9041215        1        80         9.1902519        1
     2       -20.6017477        1        81         9.2810349        1
     3       -10.6235974        1        82        10.3374363        1
     4        -8.0903179        1        83        10.4444548        1
     5        -8.0879166        1        84        10.6207341        1
     6        -1.5631896        1        85        11.9770984        1
     7        -1.1154991        1        86        12.7280289        1
     8        -0.8038848        1        87        13.2294479        1
     9        -0.6232651        1        88        18.3017126        1
    10        -0.4839793        1        89        26.8248484        1
    11        -8.0877564        2        90        28.6444129        1
    12        -0.6314908        2        91        30.5379671        1
    13        -0.4565303        2        92        36.8828527        1
    14         0.0336450        1        93        36.8885280        1
    15         0.0585702        1        94        36.8919451        1
    16         0.1085285        1        95        36.8958319        1
    17         0.1355365        1        96        44.0542123        1
    18         0.1554246        1        97        44.5275104        1
    19         0.1681630        1        98        44.9001143        1
    20         0.1831850        1        99        46.4698557        1
    21         0.2644482        1       100        46.5286785        1
    22         0.3072859        1       101        46.6149979        1
    23         0.3344300        1       102        55.0704802        1
    24         0.3903721        1       103        55.6567240        1
    25         0.4279610        1       104       103.9402250        1
    26         0.4848026        1       105       138.8032595        1
    27         0.4956304        1       106       140.7914693        1
    28         0.6281580        1       107       150.9615964        1
    29         0.6644544        1       108         0.1139371        2
    30         0.7238154        1       109         0.1760390        2
    31         0.7427001        1       110         0.2808914        2
    32         0.8047655        1       111         0.3893362        2
    33         0.8459524        1       112         0.4139576        2
    34         0.9034079        1       113         0.6083677        2
    35         0.9244590        1       114         0.7360715        2
    36         0.9487288        1       115         0.7731468        2
    37         0.9802942        1       116         0.8571772        2
    38         0.9993325        1       117         0.9099004        2
    39         1.1182412        1       118         0.9400156        2
    40         1.1900643        1       119         1.0335729        2
    41         1.2452507        1       120         1.0884224        2
    42         1.3337491        1       121         1.2377214        2
    43         1.3884385        1       122         1.4467182        2
    44         1.4635949        1       123         1.5048570        2
    45         1.5535576        1       124         1.7443167        2
    46         1.6796522        1       125         2.1693533        2
    47         1.7800427        1       126         2.3108386        2
    48         1.8281341        1       127         2.3451440        2
    49         2.2204240        1       128         2.4534013        2
    50         2.2413549        1       129         2.4735228        2
    51         2.2942102        1       130         2.5230320        2
    52         2.3490335        1       131         2.6216444        2
    53         2.4060716        1       132         2.8926521        2
    54         2.4400020        1       133         3.0466065        2
    55         2.4715947        1       134         3.1567570        2
    56         2.5617491        1       135         3.3762184        2
    57         2.7377762        1       136         4.3506160        2
    58         2.8317608        1       137         4.6446149        2
    59         2.9392595        1       138         4.7101159        2
    60         2.9788393        1       139         5.8028122        2
    61         3.0487990        1       140         6.7067473        2
    62         3.1232090        1       141         6.9021098        2
    63         3.2618547        1       142         6.9181172        2
    64         3.3615065        1       143         7.1526221        2
    65         3.5287008        1       144         9.2485473        2
    66         3.9753235        1       145        10.3377432        2
    67         4.1015524        1       146        10.3751861        2
    68         4.5657263        1       147        12.6679592        2
    69         4.6993707        1       148        26.5226177        2
    70         4.9552863        1       149        36.8827598        2
    71         5.2846022        1       150        36.8833751        2
    72         5.9907448        1       151        36.8918973        2
    73         6.1845986        1       152        43.9503935        2
    74         6.4213168        1       153        44.5000541        2
    75         6.7117375        1       154        46.4700429        2
    76         6.8359265        1       155        46.4941983        2
    77         6.9542572        1       156        55.0069198        2
    78         7.0523163        1       157       138.5923979        2
    79         7.5780863        1
------------------------------------------------------------------------
  -104.904121469551       -20.6017476689092       -10.6235973632459     
  -8.09031785914150       -8.08791664366018       -1.56318957840134     
  -1.11549910648090      -0.803884757718011      -0.623265086207174     
 -0.483979279654712       -8.08775638561372      -0.631490786993496     
 -0.456530268624240       3.364504296466656E-002  5.857021539466062E-002
  0.108528476758895       0.135536525867381       0.155424571460932     
  0.168163020765912       0.183185011762566       0.264448239327340     
  0.307285873770357       0.334429993646451       0.390372060980009     
  0.427961031417566       0.484802636554616       0.495630375979770     
  0.628158045215996       0.664454446430360       0.723815380703727     
  0.742700086627395       0.804765510003125       0.845952386254027     
  0.903407854125507       0.924459048224224       0.948728771283576     
  0.980294212502525       0.999332494182748        1.11824120398211     
   1.19006430232848        1.24525074193951        1.33374913393410     
   1.38843852913748        1.46359492954018        1.55355758911363     
   1.67965216094844        1.78004271255453        1.82813411092300     
   2.22042402675792        2.24135492021869        2.29421021045769     
   2.34903348615519        2.40607159486551        2.44000204706428     
   2.47159471613381        2.56174907476907        2.73777620950761     
   2.83176077025418        2.93925952608777        2.97883934457446     
   3.04879898176070        3.12320897675437        3.26185465549328     
   3.36150645281727        3.52870078503486        3.97532350621966     
   4.10155241967295        4.56572628435381        4.69937071404151     
   4.95528629664970        5.28460224489867        5.99074478652374     
   6.18459861599454        6.42131678882518        6.71173750137460     
   6.83592654407878        6.95425718446998        7.05231631806980     
   7.57808631799320        9.19025186648279        9.28103492770151     
   10.3374362894094        10.4444548291191        10.6207341432652     
   11.9770983986953        12.7280288627960        13.2294478663914     
   18.3017125880946        26.8248483649301        28.6444128608035     
   30.5379670882263        36.8828526932879        36.8885280042693     
   36.8919451332462        36.8958319176301        44.0542123481622     
   44.5275103623868        44.9001143440434        46.4698556718911     
   46.5286785316063        46.6149978762024        55.0704801825823     
   55.6567240362008        103.940224997932        138.803259456782     
   140.791469273907        150.961596417252       0.113937120152760     
  0.176039048442022       0.280891422390437       0.389336247294916     
  0.413957568737346       0.608367738218408       0.736071504786258     
  0.773146752073068       0.857177200465308       0.909900386656194     
  0.940015587557022        1.03357292278052        1.08842238050491     
   1.23772140060500        1.44671822243960        1.50485704901739     
   1.74431669974457        2.16935334281739        2.31083856415934     
   2.34514400910599        2.45340134412996        2.47352275953230     
   2.52303203953474        2.62164436966328        2.89265207600089     
   3.04660648039207        3.15675704766577        3.37621837844420     
   4.35061596508671        4.64461491528165        4.71011588288256     
   5.80281219681160        6.70674729277536        6.90210984774723     
   6.91811718931259        7.15262213552724        9.24854725432686     
   10.3377431730402        10.3751860762147        12.6679591767648     
   26.5226177257814        36.8827597548145        36.8833751131639     
   36.8918972814339        43.9503934577019        44.5000541326695     
   46.4700429465960        46.4941982957166        55.0069197882282     
   138.592397898275     
 @CHECKOUT-I, Total execution time (CPU/WALL):       34.31/      19.46 seconds.
--executable xvtran finished with status     0 in       19.53 seconds (walltime).
 --invoking executable--
/home/asmola/.local/bin/xintprc
 @GETMEM-I,  Allocated    3814 MB of main memory.
  Processing integrals for CCSD calculation.
  @GMOIAA-I, Processing MO integrals for spin case AA.
  @GMOIAA-I, Generation of integral list completed.
                      TYPE                NUMBER
                      ----               --------
                      PPPP              27524020
                      PPPH               9932000
                      PPHH                900748
                      PHPH                491140
                      PHHH                 89950
                      HHHH                  2356

                     TOTAL              38940214

  @FORMT2-I, Second-order MP correlation energies:
            ------------------------------------------------
            E(SCF)                  =   -534.600880348181 a.u.
            E2(AA)                  =     -0.105560676237 a.u.
            E2(AB)                  =     -0.620058810735 a.u.
            E2(TOT)                 =     -0.831180163208 a.u.
            Total MP2 energy        =   -535.432060511390 a.u.
            ------------------------------------------------
   Largest T2 amplitudes for spin case AB:
       _       _                 _       _                 _       _
   i   j   a   b             i   j   a   b             i   j   a   b
-----------------------------------------------------------------------------
[  9   9  17  17]-0.02814 [  9   9  17  15] 0.02301 [  9   9  15  17] 0.02301
[  9   9  15  15]-0.02013 [ 13  13 112 112]-0.01789 [ 13  13 113 113]-0.01593
[ 10  10  34  34]-0.01563 [ 13  13 116 116]-0.01431 [ 10  10  24  24]-0.01274
[ 13   9 112  17]-0.01264 [  9  13  17 112]-0.01264 [ 13  13 117 117]-0.01213
[ 10  10  25  25]-0.01182 [  9   9  20  17] 0.01176 [  9   9  17  20] 0.01176
-----------------------------------------------------------------------------
   Norm of T2AB vector (  1799624 symmetry allowed elements):  0.3111263780.
-----------------------------------------------------------------------------
 @CHECKOUT-I, Total execution time (CPU/WALL):        6.31/       9.66 seconds.
--executable xintprc finished with status     0 in        9.79 seconds (walltime).
  calling xvcc 
 --invoking executable--
/home/asmola/.local/bin/xvcc
 @GETMEM-I,  Allocated    3814 MB of main memory.
   CCSD energy will be calculated.
   The total correlation energy is -0.831180163208 a.u.
   The total correlation energy is -0.837737752578 a.u.
  Convergence information after     1 iterations: 
  Largest element of residual vector : -0.11188803E-01.
  Largest element of DIIS residual   : -0.11188803E-01.
   The total correlation energy is -0.849093366254 a.u.
  Convergence information after     2 iterations: 
  Largest element of residual vector : -0.34110247E-02.
  Largest element of DIIS residual   : -0.33229263E-02.
   The total correlation energy is -0.849391695933 a.u.
  Convergence information after     3 iterations: 
  Largest element of residual vector : -0.18118104E-02.
  Largest element of DIIS residual   :  0.90072613E-03.
   The total correlation energy is -0.850450580716 a.u.
  Convergence information after     4 iterations: 
  Largest element of residual vector : -0.25111048E-03.
  Largest element of DIIS residual   :  0.20157110E-03.
   The total correlation energy is -0.850536892468 a.u.
  Convergence information after     5 iterations: 
  Largest element of residual vector :  0.16650367E-03.
  Largest element of DIIS residual   :  0.93320038E-04.
   The total correlation energy is -0.850534752629 a.u.
  Convergence information after     6 iterations: 
  Largest element of residual vector : -0.51450802E-04.
  Largest element of DIIS residual   : -0.42380978E-04.
   The total correlation energy is -0.850534692871 a.u.
  Convergence information after     7 iterations: 
  Largest element of residual vector :  0.26365082E-04.
  Largest element of DIIS residual   :  0.16386436E-04.
   The total correlation energy is -0.850534306043 a.u.
  Convergence information after     8 iterations: 
  Largest element of residual vector : -0.10481124E-04.
  Largest element of DIIS residual   : -0.62697543E-05.
   The total correlation energy is -0.850534187688 a.u.
  Convergence information after     9 iterations: 
  Largest element of residual vector :  0.42898636E-05.
  Largest element of DIIS residual   :  0.23129206E-05.
   The total correlation energy is -0.850534580257 a.u.
  Convergence information after    10 iterations: 
  Largest element of residual vector :  0.23416442E-05.
  Largest element of DIIS residual   :  0.18573380E-05.
   The total correlation energy is -0.850534674943 a.u.
  Convergence information after    11 iterations: 
  Largest element of residual vector :  0.11769548E-05.
  Largest element of DIIS residual   : -0.88755422E-06.
   The total correlation energy is -0.850534740497 a.u.
  Convergence information after    12 iterations: 
  Largest element of residual vector :  0.80326847E-06.
  Largest element of DIIS residual   :  0.52122532E-06.
   The total correlation energy is -0.850534763072 a.u.
  Convergence information after    13 iterations: 
  Largest element of residual vector : -0.32344290E-06.
  Largest element of DIIS residual   : -0.22662385E-06.
   The total correlation energy is -0.850534765034 a.u.
  Convergence information after    14 iterations: 
  Largest element of residual vector :  0.18021204E-06.
  Largest element of DIIS residual   :  0.10835262E-06.
   The total correlation energy is -0.850534763374 a.u.
  Convergence information after    15 iterations: 
  Largest element of residual vector : -0.78832492E-07.
  Largest element of DIIS residual   : -0.40667053E-07.
   The total correlation energy is -0.850534761934 a.u.
  Convergence information after    16 iterations: 
  Largest element of residual vector :  0.26751878E-07.
  Largest element of DIIS residual   :  0.13971584E-07.
   The total correlation energy is -0.850534761720 a.u.
  Convergence information after    17 iterations: 
  Largest element of residual vector :  0.13838692E-07.
  Largest element of DIIS residual   :  0.87770323E-08.
   The total correlation energy is -0.850534761606 a.u.
  Convergence information after    18 iterations: 
  Largest element of residual vector : -0.59142585E-08.
  Largest element of DIIS residual   : -0.50954828E-08.
   The total correlation energy is -0.850534761694 a.u.
  Convergence information after    19 iterations: 
  Largest element of residual vector :  0.38054458E-08.
  Largest element of DIIS residual   :  0.26333774E-08.
   The total correlation energy is -0.850534761807 a.u.
  Convergence information after    20 iterations: 
  Largest element of residual vector : -0.21300085E-08.
  Largest element of DIIS residual   : -0.17049854E-08.
   The total correlation energy is -0.850534761835 a.u.
  Convergence information after    21 iterations: 
  Largest element of residual vector :  0.12692911E-08.
  Largest element of DIIS residual   :  0.10241526E-08.
   The total correlation energy is -0.850534761837 a.u.
  Convergence information after    22 iterations: 
  Largest element of residual vector :  0.78871677E-09.
  Largest element of DIIS residual   :  0.49659491E-09.
   The total correlation energy is -0.850534761834 a.u.
  Convergence information after    23 iterations: 
  Largest element of residual vector :  0.35354882E-09.
  Largest element of DIIS residual   :  0.27494751E-09.
   The total correlation energy is -0.850534761829 a.u.
  Convergence information after    24 iterations: 
  Largest element of residual vector :  0.20681884E-09.
  Largest element of DIIS residual   :  0.12714549E-09.
   The total correlation energy is -0.850534761827 a.u.
  Convergence information after    25 iterations: 
  Largest element of residual vector :  0.92790851E-10.
  Largest element of DIIS residual   : -0.58034318E-10.
  Amplitude equations converged in    25iterations.
   The total correlation energy is -0.850534761826 a.u.
   The CC iterations have converged.

   Largest T1 amplitudes for spin case AA:
   i       a                 i       a                 i       a    
-----------------------------------------------------------------------------
[ 12     112    ]-0.01352 [  9      38    ] 0.01182 [ 12     109    ]-0.00956
[  9      17    ]-0.00725 [  8      38    ]-0.00651 [ 12     116    ]-0.00618
[...]
 final tnorm  0.856370402113078     
  norm contr. I: |<0|L dT/dx|0>|^2   0.000000000000000E+000
  norm contr. II: <0|[nabla(1+L)e-T][nabla e^T]|0>  0.528783313196152     
  total norm contribution  0.528783313196152     
 oo  2.207848375943483E-003
 vv  -1.68854459757902     
 vo -2.412926552088959E-002
  Correlated perturbed 1-el contribution to DBOC  -1.71046601472397       cm**-1
  SUM_I |dc_I/dx|^2 contribution to DBOC  0.861351148891020       cm**-1
 
 
  The total diagonal Born-Oppenheimer correction (DBOC) is:      0.0085330412 a.u.
  The total diagonal Born-Oppenheimer correction (DBOC) is:       1872.786062 cm-1
 
 Total CC energy including DBOC  -535.442882068852     
 First-order density matrix is being calculated  (Symmetry block 2, perturbation   3)
 Calculation of the contributions of <pq||rs> to dI(i,j)/dx required   4.0 seconds.
 Calculation of the contributions of <pq||rs> to dI(a,b)/dx required  10.8 seconds.
 Calculation of the contributions of <pq||rs> to dI(i,a)/dx required   6.6 seconds.
 First-order Z-vector equations are solved for 1 perturbation.
 Convergence reached after  22 iterations.
        U*G(pq,rs) contribution is being calculated
             (Symmetry block 2, perturbation   3)

 CCSD contribution to force constants 

        0.0000000000        0.0000000000        0.0000000000
        0.0000000000        0.0000000000        0.0000000000
        0.0000000000        0.0000000000        0.0000000000
        0.0000000000        0.0000000000        0.0000000000
        0.0000000000        0.0000000000        0.0000000000
        0.0000000000        0.0000000000        0.0000000000
        0.0000000000        0.0000000000        0.0000000000
        0.0000000000        0.0000000000        0.0000000000
        0.0000000000        0.0000000000        0.0000000000
        0.0000000000        0.0000000000        0.0000000000
        0.0000000000        0.0000000000        0.0000000000
        0.0000000000        0.0000000000        0.0000000000
        0.0000000000        0.0000000000        0.0000000000
        0.0000000000        0.0000000000        0.0000000000
        0.0000000000        0.0000000000        0.0000000000
        0.0000000000        0.0000000000        0.0000000000
        0.0000000000        0.0000000000        0.0000000000
        0.0000000000        0.0000000000        0.0000000000
        0.0000000000        0.0000000000        0.0000000000
        0.0000000000        0.0000000000        0.0000000000
        0.0000000000        0.0000000000        0.0000000000
        0.0000000000        0.0000000000        0.0000000000
        0.0000000000        0.0000000000        0.0000000000
        0.0000000000        0.0000000000        0.0000000000
        0.0000000000        0.0000000000        0.0000000000
        0.0000000000        0.0000000000        0.0000000000
        0.7660628934       -0.5183941226       -0.2476687709

 CCSD contribution to dipole derivatives 

        0.0000000000        0.0000000000        0.0000000000
        0.0000000000        0.0000000000        0.0000000000
        0.0000000000        0.0000000000        0.0000000000
        0.0000000000        0.0000000000        0.0000000000
        0.0000000000        0.0000000000        0.0000000000
        0.0000000000        0.0000000000        0.0000000000
        0.0000000000        0.0000000000        0.0000000000
        0.0000000000        0.0000000000        0.0000000000
        0.0000000000        0.0000000000        0.0118315550
 @CHECKOUT-I, Total execution time (CPU/WALL):      945.21/     274.73 seconds.
--executable xsdcc finished with status     0 in      274.91 seconds (walltime).
 --invoking executable--
/home/asmola/.local/bin/xanti
 @GETMEM-I,  Allocated    3814 MB of main memory.
 CCSD MO derivative gammas will be sorted to Mulliken order.
 @CHECKOUT-I, Total execution time (CPU/WALL):        6.33/       4.92 seconds.
--executable xanti finished with status     0 in        5.05 seconds (walltime).
 --invoking executable--
/home/asmola/.local/bin/xbcktrn
 @GETMEM-I,  Allocated    3814 MB of main memory.
 CCSD MO derivative gammas will be transformed to the AO basis.
 @CHECKOUT-I, Total execution time (CPU/WALL):       11.05/       2.63 seconds.
--executable xbcktrn finished with status     0 in        2.68 seconds (walltime).
 --invoking executable--
/home/asmola/.local/bin/xvdint
 @GETMEM-I,  Allocated    3814 MB of main memory.
 One- and two-electron integral derivatives are calculated
 for RHF-CC/MBPT hessians and dipole derivatives.
 Spherical gaussians are used.
  magnet F F
 Evaluation of 2el integral derivatives

                      Two-electron integral gradient
                      ------------------------------

                         O #1 x     0.0000000000
                         O #1 y     0.0000000000
                         H #2 x     0.0000000000
                         H #2 y     0.0000000000
                         CL#3 x     0.0000000000
                         CL#3 y     0.0000000000


 O #1       0.0000000000            0.0000000000           -0.0876819128
 H #2       0.0000000000            0.0000000000           -0.0012439470
 CL#3       0.0000000000            0.0000000000            0.0889258598


 Evaluation of 2e integral derivatives required  110.55 seconds.
  contribution to Hessian
        0.0000000000        0.0000000000        0.0000000000
        0.0000000000        0.0000000000        0.0000000000
       -0.0876819128       -0.0012439470        0.0889258598
 @CHECKOUT-I, Total execution time (CPU/WALL):      110.79/      19.71 seconds.
--executable xvdint finished with status     0 in       19.81 seconds (walltime).
 --invoking executable--
/home/asmola/.local/bin/xanti
 @GETMEM-I,  Allocated    3814 MB of main memory.
 CCSD MO gammas will be sorted to Mulliken order.
 @CHECKOUT-I, Total execution time (CPU/WALL):        9.23/      14.86 seconds.
--executable xanti finished with status     0 in       14.96 seconds (walltime).
 --invoking executable--
/home/asmola/.local/bin/xbcktrn
 @GETMEM-I,  Allocated    3814 MB of main memory.
 CCSD MO gammas will be transformed to the AO basis.
 @CHECKOUT-I, Total execution time (CPU/WALL):       19.49/       2.82 seconds.
--executable xbcktrn finished with status     0 in        2.91 seconds (walltime).
 --invoking executable--
/home/asmola/.local/bin/xvdint
 @GETMEM-I,  Allocated    3814 MB of main memory.
 One- and two-electron integral derivatives are calculated
 for RHF-CC/MBPT hessians and dipole derivatives.
 Spherical gaussians are used.
  magnet F F

                     Kinetic energy integral gradient
                     --------------------------------

                         O #1 x    -0.3231954876
                         O #1 y    -1.3152311966
                         H #2 x     0.6685687228
                         H #2 y     1.3416832988
                         CL#3 x    -0.3453732352
                         CL#3 y    -0.0264521022


 O #1      -0.3231954876           -1.3152311966            0.0000000000
 H #2       0.6685687228            1.3416832988            0.0000000000
 CL#3      -0.3453732352           -0.0264521022            0.0000000000



                   Nuclear attraction integral gradient
                   ------------------------------------

                         O #1 x   -21.4412695802
                         O #1 y     8.9962252645
                         H #2 x    -7.3346801067
                         H #2 y    -9.4235332872
                         CL#3 x    28.7759496870
                         CL#3 y     0.4273080227


 O #1     -21.4412695802            8.9962252645            0.0000000000
 H #2      -7.3346801067           -9.4235332872            0.0000000000
 CL#3      28.7759496870            0.4273080227            0.0000000000



                      Reorthonormalization gradient
                      -----------------------------

                         O #1 x     0.0000000000
                         O #1 y     0.0000000000
                         H #2 x     0.0000000000
                         H #2 y     0.0000000000
                         CL#3 x     0.0000000000
                         CL#3 y     0.0000000000


 O #1       0.0000000000            0.0000000000            0.0000000000
 H #2       0.0000000000            0.0000000000            0.0000000000
 CL#3       0.0000000000            0.0000000000            0.0000000000



                     Kinetic energy integral Hessian
                     -------------------------------


           Symmetry 1

           O #1 x      O #1 y      H #2 x      H #2 y      CL#3 x      CL#3 y

 O #1 x   -2.422397
 O #1 y    0.668020   -1.833180
 H #2 x    2.794825   -0.665724   -2.806849
 H #2 y   -0.665724    1.624410    0.686535   -1.624035
 CL#3 x   -0.372428   -0.002296    0.012025   -0.020811    0.360403
 CL#3 y   -0.002296    0.208770   -0.020811   -0.000374    0.023108   -0.208396


           Symmetry 2

           O #1 z      H #2 z      CL#3 z

 O #1 z   -3.691201
 H #2 z    3.488577   -3.496982
 CL#3 z    0.202625    0.008405   -0.211029




           O #1 x      O #1 y      O #1 z      H #2 x      H #2 y      H #2 z

 O #1 x   -2.422397
 O #1 y    0.668020   -1.833180
 O #1 z    0.000000    0.000000   -3.691201

 H #2 x    2.794825   -0.665724    0.000000   -2.806849
 H #2 y   -0.665724    1.624410    0.000000    0.686535   -1.624035
 H #2 z    0.000000    0.000000    3.488577    0.000000    0.000000   -3.496982

 CL#3 x   -0.372428   -0.002296    0.000000    0.012025   -0.020811    0.000000
 CL#3 y   -0.002296    0.208770    0.000000   -0.020811   -0.000374    0.000000
 CL#3 z    0.000000    0.000000    0.202625    0.000000    0.000000    0.008405


           CL#3 x      CL#3 y      CL#3 z

 CL#3 x    0.360403
 CL#3 y    0.023108   -0.208396
 CL#3 z    0.000000    0.000000   -0.211029




                   Nuclear attraction integral Hessian
                   -----------------------------------


           Symmetry 1

           O #1 x      O #1 y      H #2 x      H #2 y      CL#3 x      CL#3 y

 O #1 x    4.549548
 O #1 y   -4.247360   20.343107
 H #2 x  -19.037168    4.776321   18.251855
 H #2 y    5.165195   -9.978571   -5.915212   10.110737
 CL#3 x   14.487620   -0.528962    0.785313    0.750017  -15.272933
 CL#3 y   -0.917835  -10.364536    1.138891   -0.132166   -0.221056   10.496702


           Symmetry 2

           O #1 z      H #2 z      CL#3 z

 O #1 z   33.245504
 H #2 z  -23.455207   24.098000
 CL#3 z   -9.790296   -0.642793   10.433090




           O #1 x      O #1 y      O #1 z      H #2 x      H #2 y      H #2 z

 O #1 x    4.549548
 O #1 y   -4.247360   20.343107
 O #1 z    0.000000    0.000000   33.245504

 H #2 x  -19.037168    4.776321    0.000000   18.251855
 H #2 y    5.165195   -9.978571    0.000000   -5.915212   10.110737
 H #2 z    0.000000    0.000000  -23.455207    0.000000    0.000000   24.098000

 CL#3 x   14.487620   -0.528962    0.000000    0.785313    0.750017    0.000000
 CL#3 y   -0.917835  -10.364536    0.000000    1.138891   -0.132166    0.000000
 CL#3 z    0.000000    0.000000   -9.790296    0.000000    0.000000   -0.642793


           CL#3 x      CL#3 y      CL#3 z

 CL#3 x  -15.272933
 CL#3 y   -0.221056   10.496702
 CL#3 z    0.000000    0.000000   10.433090




                Highest order reorthonormalization Hessian
                ------------------------------------------


           Symmetry 1

           O #1 x      O #1 y      H #2 x      H #2 y      CL#3 x      CL#3 y

 O #1 x    0.000000
 O #1 y    0.000000    0.000000
 H #2 x    0.000000    0.000000    0.000000
 H #2 y    0.000000    0.000000    0.000000    0.000000
 CL#3 x    0.000000    0.000000    0.000000    0.000000    0.000000
 CL#3 y    0.000000    0.000000    0.000000    0.000000    0.000000    0.000000


           Symmetry 2

           O #1 z      H #2 z      CL#3 z

 O #1 z    0.000000
 H #2 z    0.000000    0.000000
 CL#3 z    0.000000    0.000000    0.000000




           O #1 x      O #1 y      O #1 z      H #2 x      H #2 y      H #2 z


           CL#3 x      CL#3 y      CL#3 z




                Electronic contributions to dipole moment
                -----------------------------------------

                               au             Debye

                    x      2.77765404      7.06009359
                    y      0.05668248      0.14407253

  Conversion factor used: 1 a.u. =   2.54174691 Debye 



   Electronic contributions to static part of dipole moment derivatives
   --------------------------------------------------------------------


                     Total dipole moment derivatives
                     -------------------------------


           Symmetry 1
                              Ex             Ey

               O #1 x    -8.42980309    -0.06128089
               O #1 y     0.01935762    -8.30808054
               H #2 x    -0.79031195     0.10897098
               H #2 y     0.02505055    -0.84044202
               CL#3 x   -16.77988496    -0.04769008
               CL#3 y    -0.04440817   -16.85147744

           Symmetry 2
                              Ez

               O #1 z    -7.92650749
               H #2 z    -1.21327033
               CL#3 z   -16.86022218



                       Ex          Ey          Ez

      O #1    x   -8.429803   -0.061281    0.000000
      O #1    y    0.019358   -8.308081    0.000000
      O #1    z    0.000000    0.000000   -7.926507

      H #2    x   -0.790312    0.108971    0.000000
      H #2    y    0.025051   -0.840442    0.000000
      H #2    z    0.000000    0.000000   -1.213270

      CL#3    x  -16.779885   -0.047690    0.000000
      CL#3    y   -0.044408  -16.851477    0.000000
      CL#3    z    0.000000    0.000000  -16.860222

 Evaluation of 1e integral derivatives required    1.70 seconds.
 Evaluation of 2el integral derivatives

                      Two-electron integral gradient
                      ------------------------------

                         O #1 x     9.8104619767
                         O #1 y    -2.7012121964
                         H #2 x     3.8053922152
                         H #2 y     3.0642581177
                         CL#3 x   -13.6158541919
                         CL#3 y    -0.3630459213


 O #1       9.8104619767           -2.7012121964            0.0000000000
 H #2       3.8053922152            3.0642581177            0.0000000000
 CL#3     -13.6158541919           -0.3630459213            0.0000000000


 Evaluation of 2e integral derivatives required  298.06 seconds.

                            Molecular gradient
                            ------------------

                         O #1 x    -0.4687661712
                         O #1 y    -1.2384631117
                         H #2 x     0.3064776807
                         H #2 y     1.2330080073
                         CL#3 x     0.1622884905
                         CL#3 y     0.0054551044


 O #1      -0.4687661712           -1.2384631117            0.0000000000
 H #2       0.3064776807            1.2330080073            0.0000000000
 CL#3       0.1622884905            0.0054551044            0.0000000000


  Molecular gradient norm 0.184E+01

                            Molecular hessian
                            -----------------


           Symmetry 1

           O #1 x      O #1 y      H #2 x      H #2 y      CL#3 x      CL#3 y

 O #1 x    6.523997
 O #1 y    3.631067    2.174787
 H #2 x   -5.318233   -8.039996    5.574247
 H #2 y   -3.414146   -2.336521    3.820111    1.812924
 CL#3 x   -1.205764   -0.411107   -1.383880    0.102252    2.589644
 CL#3 y   -0.216921    0.161732   -0.437483   -0.706307    0.654404    0.544575


           Symmetry 2

           O #1 z      H #2 z      CL#3 z

 O #1 z  -15.301145
 H #2 z   14.722661  -15.110874
 CL#3 z    0.578484   -0.515199   -0.063284




           O #1 x      O #1 y      O #1 z      H #2 x      H #2 y      H #2 z

 O #1 x    6.523997
 O #1 y    3.631067    2.174787
 O #1 z    0.000000    0.000000  -15.301145

 H #2 x   -5.318233   -8.039996    0.000000    5.574247
 H #2 y   -3.414146   -2.336521    0.000000    3.820111    1.812924
 H #2 z    0.000000    0.000000   14.722661    0.000000    0.000000  -15.110874

 CL#3 x   -1.205764   -0.411107    0.000000   -1.383880    0.102252    0.000000
 CL#3 y   -0.216921    0.161732    0.000000   -0.437483   -0.706307    0.000000
 CL#3 z    0.000000    0.000000    0.578484    0.000000    0.000000   -0.515199


           CL#3 x      CL#3 y      CL#3 z

 CL#3 x    2.589644
 CL#3 y    0.654404    0.544575
 CL#3 z    0.000000    0.000000   -0.063284




                           Total dipole moment
                           -------------------

                               au             Debye

                    x      0.02281693      0.05799487
                    y     -0.43756917     -1.11219009

  Conversion factor used: 1 a.u. =   2.54174691 Debye 



                     Total dipole moment derivatives
                     -------------------------------


           Symmetry 1
                              Ex             Ey

               O #1 x    -0.53244336    -0.00604732
               O #1 y    -0.31890688    -0.20610182
               H #2 x     0.22273163     0.02982999
               H #2 y     0.23677283     0.18854893
               CL#3 x     0.30971170    -0.02378267
               CL#3 y     0.08213435     0.01755283

           Symmetry 2
                              Ez

               O #1 z    -0.45264397
               H #2 z     0.40170008
               CL#3 z     0.05094378



                       Ex          Ey          Ez

      O #1    x   -0.532443   -0.006047    0.000000
      O #1    y   -0.318907   -0.206102    0.000000
      O #1    z    0.000000    0.000000   -0.452644

      H #2    x    0.222732    0.029830    0.000000
      H #2    y    0.236773    0.188549    0.000000
      H #2    z    0.000000    0.000000    0.401700

      CL#3    x    0.309712   -0.023783    0.000000
      CL#3    y    0.082134    0.017553    0.000000
      CL#3    z    0.000000    0.000000    0.050944

  Molecular gradient does not satisfy rotational invariance condition.
   rotational invariance in yz-plane :        0.0000E+00
   rotational invariance in xz-plane :        0.0000E+00
   rotational invariance in xy-plane :        0.8040E-01
 @CHECKOUT-I, Total execution time (CPU/WALL):      299.85/      42.81 seconds.
--executable xvdint finished with status     0 in       42.91 seconds (walltime).
 --invoking executable--
/home/asmola/.local/bin/xjoda
  @GTFLGS-I, Hessian will be transformed to curvilinear coordinates.
  @GTFLGS-I, Hessian will be transformed to curvilinear coordinates.
  igrd and ihes are                      0                     1
  gradient from JOBARC 
  -0.468766171207525  -1.238463111686719   0.000000000000000
   0.306477680731927   1.233008007263465   0.000000000000000
   0.162288490475609   0.005455104423262   0.000000000000000
 
  @PROJFCM-I, Projecting force constant matrix onto totally symmetric subspace.
  Largest difference between matrix elements of symmetrized
  and unsymmetrized FCM :     0.0000000000E+00.
  read isotopes from ZMAT file 
 
  Summary of diagonal Born-Oppenheimer correction at the correlated level
  The total diagonal Born-Oppenheimer correction (DBOC) is:      0.0085330412 a.u.
  The total diagonal Born-Oppenheimer correction (DBOC) is:       1872.786062 cm-1
  The total diagonal Born-Oppenheimer correction (DBOC) is:            22.404 kJ/mole
  hellooooooo 
  readis is  F
 
 @CHECKOUT-I, Total execution time (CPU/WALL):        0.02/       0.05 seconds.
--executable xjoda finished with status     0 in        0.09 seconds (walltime).
  The final electronic energy is      -535.442882068851532 a.u. 
  This computation required                         2891.54 seconds (walltime).
