 --invoking executable--
/home/asmola/.local/bin/xjoda


   *************************************************************************
         <<<     CCCCCC     CCCCCC   |||     CCCCCC     CCCCCC   >>>
       <<<      CCC        CCC       |||    CCC        CCC         >>>
      <<<      CCC        CCC        |||   CCC        CCC            >>>
    <<<        CCC        CCC        |||   CCC        CCC              >>>
      <<<      CCC        CCC        |||   CCC        CCC            >>>
       <<<      CCC        CCC       |||    CCC        CCC         >>>
         <<<     CCCCCC     CCCCCC   |||     CCCCCC     CCCCCC   >>>
   *************************************************************************

     ****************************************************************
     * CFOUR Coupled-Cluster techniques for Computational Chemistry *
     ****************************************************************
 

   Department of Chemistry                Institut fuer Physikalische Chemie
   University of Florida                  Universitaet Mainz
   Gainesville, FL 32611, USA             D-55099 Mainz, Germany

   Department of Chemistry                Fakultaet fuer Chemie und Biowiss.
   Johns Hopkins University               Karlsruher Institut fuer Technologie
   Baltimore, MD 21218, USA               D-76131 Karlsruhe, Germany

   Department of Chemistry                Department of Physical Chemistry
   Southern Methodist University          Eotvos Lorand University
   Dallas, TX 75275, USA                  H-1053 Budapest, Hungary

 
                       Version 2.1
 
                     vincent.theory.phys.ucl.ac.uk                     
                     Thu 30 Jan 01:30:13 GMT 2025                      
                     integer*8 version is running
 
********************************************************************************
*                          Input from ZMAT file                                *
********************************************************************************
Hypochlorous acid DBOC calculation                                              
O                                                                               
H 1 ROH                                                                         
CL 1 ROCL 2 A                                                                   
                                                                                
ROH=1.0500000000000003                                                          
ROCL=1.683                                                                      
A=107.0                                                                         
                                                                                
                                                                                
*CFOUR(CALC=CCSD,BASIS=AUG-PCVTZ,SCF_CONV=10                                    
CC_CONV=10,DBOC=ON,MEMORY=500000000)                                            
                                                                                
%isotopes                                                                       
16                                                                              
1                                                                               
37                                                                              
********************************************************************************
  @GTFLGS-I, Hessian will be transformed to curvilinear coordinates.
    -------------------------------------------------------------------
                    CFOUR Control Parameters 
    -------------------------------------------------------------------
        External           Internal           Value            Units
          Name               Name
    -------------------------------------------------------------------
       ABCDTYPE             IABCDT         STANDARD    [  0]    ***   
       ANHARMONIC           IANHAR         OFF         [  0]    ***   
       ANH_ALGORIT          IANALG         STANDARD    [  0]    ***   
       ANH_DERIVAT          IANDER         SECOND      [  1]    ***   
       ANH_MODE             ANHMOD         VIBRATION   [  0]    ***   
       ANH_STEPSIZ          ICUBST             50000          x 10-6  
       ANH_SYMMETR          IANHSM         ABELIAN     [  0]    ***   
       AO_LADDERS           IAOLAD         SINGLEPASS  [  1]    ***   
       AV_SCF               IAVSCF         OFF         [  0]    ***   
       BASIS                IBASIS         AUG-PCVTZ   [ 51]    ***   
       BOTHVECTORS          BOTHVC         OFF         [  0]    ***   
       BOX_POTENT           IPIAB          OFF         [  0]    ***   
       BREIT                IBREIT         OFF         [  0]    ***   
       BRUCK_CONV           IBRTOL          10D-  4             ***   
       BRUECKNER            IBRKNR         OFF         [  0]    ***   
       BUFFERSIZE           IBUFFS              4096            ***   
       CACHE_RECS           ICHREC             10               ***   
       CALCLEVEL            ICLLVL         CCSD        [ 10]    ***   
       CCORBOPT             ICCORB         OFF         [  0]  x 0.01  
       CC_CONV              ICCCNV          10D- 10             ***   
       CC_EXPORDER          ICCEOR              5               ***   
       CC_EXTRAPOL          ICCEXT         DIIS        [  1]    ***   
       CC_GUESS             ICCGES         MP2         [  0]    ***   
       CC_MAXCYC            ICCCYC            100              cycles 
       CC_PROGRAM           ICCPRO         VCC         [  0]    ***   
       CHARGE               ICHRGE              0               ***   
       CHOLESKY             ICHOLE         OFF         [  0]    ***   
       CIS_CONV             ICISTL              5               ***   
       COMM_SIZE            IPSIZE            ***               ***   
       CONSTANT             ICONST         OLD         [  1]    ***   
       CONTINUUM            ICONTU         NONE        [  0]    ***   
       CONTRACTION          ICNTYP         GENERAL     [  1]    ***   
       COORDINATES          ICOORD         INTERNAL    [  0]    ***   
       CPHF_CONVER          ICPHFT          10D- 16             ***   
       CPHF_MAXCYC          ICPHFC             64              cycles 
       CUBIC                ICUBIC         OFF         [  0]    ***   
       CURVILINEAR          ICURVY         ON          [  1]    ***   
       DBOC                 IDBOC          ON          [  1]    ***   
       DCT                  IDCT           OFF         [  0]    ***   
       DERIV_LEV            IDRLVL         SECOND      [  2]    ***   
       DEVMEM_SIZE          IDVMEM          50000000           MByte  
       DIAG_MRCC            IEOMST          10D-  0             ***   
       DIFF_TYPE            IDIFTY         RELAXED     [  0]    ***   
       DIRECT               IDIRCT         OFF         [  0]    ***   
       DROPMO               IDRPMO      NONE         
       ECP                  IECP           OFF         [  0]    ***   
       EIGENVECTOR          IVEC                1               ***   
       EL_ANHARM            IELANH         OFF         [  0]    ***   
       EOMFOLLOW            IEOMSR         ENERGY      [  0]    ***   
       EOMIP                IEOMIP         OFF         [  0]    ***   
       EOMLEVEL             HBARFM         SAME        [  0]    ***   
       EOM_MRCC             IMRCCE         NEW         [  1]    ***   
       EOM_NONIT            EOMNON         OFF         [  0]    ***   
       EOM_NSING            IEOMSI          10D-  0             ***   
       EOM_NSTATES          IMRCCD         DAVIDSON    [  0]    ***   
       EOM_NTRIP            IEOMTR          10D-  0             ***   
       EOM_ORDER            IEXORD         ENERGY      [  0]    ***   
       EOM_PROPSTA          IEOMST              0               ***   
       ESTATE_CONV          IEXTOL          10D-  5             ***   
       ESTATE_DIAG          IEXDIG         ITERATIVE   [  0]    ***   
       ESTATE_LOCK          IESLOC         ON          [  1]    ***   
       ESTATE_MAXC          IEXMXC             40               ***   
       ESTATE_PROP          IEXPRP         OFF         [  0]    ***   
       EVAL_HESS            IRECAL              0            # of cyc.
       EXCITATION           IEXCIT              0               ***   
       EXCITE               IEXCIT         NONE        [  0]    ***   
       EXTERN_POT           IEXPOT         OFF         [  0]    ***   
       FCGRADNEW            IFCGNW         OFF         [  0]    ***   
       FC_FIELD             IFINFC              0             x 10-6  
       FD_CALTYPE           IFDCAL         GRADONLY    [  0]    ***   
       FD_PROJECT           IFDPRJ         OFF         [  1]    ***   
       FD_STEPSIZE          IDISFD              0            10-4 bohr
       FD_USEGROUP          IFDGRP         FULL        [  0]    ***   
       FILE_RECSIZ          IFLREC              4096           words  
       FINITE_PERT          IFIPER              0             x 10-6  
       FIXGEOM              IFIXGM         OFF         [  0]    ***   
       FOCK                 IFOCK          AO          [  1]    ***   
       FREQ_ALGORI          IVIALG         STANDARD    [  0]    ***   
       FROZEN_CORE          IFROCO         OFF         [  0]    ***   
       GAMMA_ABCD           IGABCD         STORE       [  0]    ***   
       GAMMA_ABCI           IGABCI         STORE       [  0]    ***   
       GENBAS_1             IGNBS1              0               ***   
       GENBAS_2             IGNBS2              0               ***   
       GENBAS_3             IGNBS3              0               ***   
       GENBAS_4             IGNBS4              0               ***   
       GEO_CONV             ICONTL              5              H/bohr 
       GEO_MAXCYC           IOPTCY             50               ***   
       GEO_MAXSTEP          IMXSTP            300            millibohr
       GEO_METHOD           INR            SINGLE_POINT[  5]    ***   
       GIAO                 IGIAO          OFF         [  1]    ***   
       GIMIC                IGIMIC         OFF         [  0]    ***   
       GRID                 IGRID          OFF         [  0]    ***   
       GRID_ALGO            IGALGO         SERIAL      [  0]    ***   
       GUESS                IGUESS         MOREAD      [  0]    ***   
       HBAR                 IHBAR          OFF         [  0]    ***   
       HESS_TYPE            IHESTP         SCF         [  0]    ***   
       HF2_FILE             IHF2Fl         USE         [  1]    ***   
       HFSTABILITY          ISTABL         OFF         [  0]    ***   
       INCORE               INCORE         OFF         [  0]    ***   
       INPUT_MRCC           IMRCC          ON          [  1]    ***   
       INTEGRALS            INTTYP         VMOL        [  1]    ***   
       JODA_PRINT           IJPRNT              0               ***   
       KEYWORD_OUT          IDMPKW         NO          [  0]    ***   
       LINDEP_TOL           ILINDP              8               ***   
       LINEQ_CONV           IZTACN          10D-  7           cycles  
       LINEQ_EXPOR          ILMAXD              5               ***   
       LINEQ_MAXCY          ILMAXC            100               ***   
       LINEQ_TYPE           ILTYPE         DIIS        [  1]    ***   
       LOCK_ORBOCC          ILOCOC         OFF         [  0]    ***   
       MEMORY_SIZE          IMEMSZ         500000000           words  
       MEM_UNIT             IMEMU          INTEGERWORDS[  0]    ***   
       MRCC                 IMRCCC         OFF         [  0]    ***   
       MULTIPLICTY          IMULTP              1               ***   
       NACOUPLING           IVCOUP         OFF         [  0]    ***   
       NEGEVAL              IDIE           ABORT       [  0]    ***   
       NEWNORM              INEWNO         OFF         [  0]    ***   
       NON-HF               INONHF         OFF         [  0]    ***   
       NTOP_TAMP            ITOPT2             15               ***   
       NUC_MODEL            INUCMO         POINT       [  0]    ***   
       OCCUPATION           IOCCU   ESTIMATED BY SCF 
       OPEN-SHELL           IOPEN          SPIN-ORBITAL[  0]    ***   
       OPTVIB               IOPTVB         OFF         [  0]    ***   
       ORBITALS             IORBTP         STANDARD    [  0]    ***   
       PARALLEL             IPARAL         ON          [  1]    ***   
       PARA_INT             IPINTS         ON          [  1]    ***   
       PARA_PRINT           IPPRIN              0               ***   
       PERT_ORB             IPTORB         STANDARD    [  0]    ***   
       POINTS               IGRDFD              0               ***   
       PRINT                IPRNT               0               ***   
       PROPS                IPROPS         OFF         [  0]    ***   
       PROP_INTEGR          IINTYP         INTERNAL    [  0]    ***   
       PSI                  IPSI           OFF         [  0]    ***   
       QC_ALG               IQCALG         FLM         [  0]    ***   
       QC_LINALG            IQCLIN         TRIDIAG     [  2]    ***   
       QC_MAXCYC            IQCMAX          10D-100           cycles  
       QC_MAXSCFCY          IQCMSC          10D- 15           cycles  
       QC_RTRUST            IQCRTR          10D-  0           x 10-3  
       QC_SKIPSCF           IQCSKI         OFF         [  0]    ***   
       QC_START             IQCSTA          10D-  1             ***   
       QRHFGUESS            IQGUES         OFF         [  0]    ***   
       QUARTIC              IQUART         OFF         [  0]    ***   
       RAMAN_INT            IRAMIN         OFF         [  0]    ***   
       RAMAN_ORB            IRAMRE         UNRELAXED   [  0]    ***   
       RDO                  IRDOFM         ON          [  1]    ***   
       REDUCE_REPR          REDREP         Ir          [  0]    ***   
       REFERENCE            IREFNC         RHF         [  0]    ***   
       RELATIVIST           IRELAT         OFF         [  0]    ***   
       RELAX_DENS           IRDENS         ON          [  1]    ***   
       RESET_FLAGS          IRESET         OFF         [  0]    ***   
       RESTART_CC           ICCRES         OFF         [  0]    ***   
       ROT_EVEC             ROTVEC              0               ***   
       SAVE_INTS            ISVINT         OFF         [  0]    ***   
       SCALE_ON             ISTCRT              0               ***   
       SCF_CONV             ISCFCV          10D- 10             ***   
       SCF_DAMPING          IDAMP               0             x 10-3  
       SCF_EXPORDE          IRPPOR              6               ***   
       SCF_EXPSTAR          IRPPLS              8               ***   
       SCF_EXTRAPO          IRPP           ON          [  1]    ***   
       SCF_MAXCYC           ISCFCY            150              cycles 
       SCF_NOSTOP           ISCFST         OFF         [  0]    ***   
       SCF_PRINT            ISCFPR              0               ***   
       SCF_PROG             ISCFPR         SCF         [  0]    ***   
       SD_FIELD             IFINSD              0             x 10-6  
       SOPERT               IPERSO         OFF         [  0]    ***   
       SPHERICAL            IDFGHI         ON          [  1]    ***   
       SPINORBIT            ISOCAL         OFF         [  0]    ***   
       SPINROTATIO          ISRCON         OFF         [  0]    ***   
       SPIN_FLIP            ISPFLP         OFF         [  0]    ***   
       SPIN_ORBIT           ISPORB         OFF         [  0]    ***   
       SPIN_SCAL            ISCSMP         OFF         [  0]    ***   
       STEEPSCALE           ISTPSC              1000          x 10-3  
       SUBGROUP             ISUBGP         DEFAULT     [  0]    ***   
       SUBGRPAXIS           ISBXYZ         X           [  0]    ***   
       SYMMETRY             ISYM           ON          [  0]    ***   
       SYM_CHECK            ISYMCK         OVERRIDE    [  1]    ***   
       T3_EXTRAPOL          IT3EXT         OFF         [  0]    ***   
       T4_EXTRAPOL          IT4EXP         OFF         [  0]    ***   
       TAMP_SUM             IEVERY              5               ***   
       TESTSUITE            ITESTS         OFF         [  0]    ***   
       THERMOCH             ITHERM         OFF         [  0]    ***   
       TOL_CHOLESK          ITOLCH          10D-  4             ***   
       TRANGRAD             IRESRM         OFF         [  0]    ***   
       TRANS_INV            ITRAIN         IGNORE      [  1]    ***   
       TREAT_PERT           ITREAT         SIMULTANEOUS[  0]    ***   
       TRIP_ALGORI          ITRALG         NORMAL      [  0]    ***   
       UIJ_THRESHO          IUIJTH              1               ***   
       UNITS                IUNITS         ANGSTROM    [  0]    ***   
       UNOS                 IUNOS          OFF         [  0]    ***   
       UPDATE_HESS          IHUPDT         ON          [  1]    ***   
       VIBPHASE             ISETPH         STANDARD    [  0]    ***   
       VIBRATION            IVIB           ANALYTIC    [  1]    ***   
       VIB_ALGORIT          IGEALG         STANDARD    [  0]    ***   
       VNATORB              IVNORB         OFF         [  0]    ***   
       VTRAN                IVTRAN         FULL/PARTIAL[  0]    ***   
       XFIELD               IXEFLD              0             x 10-6  
       XFORM_TOL            IXFTOL          10D- 11             ***   
       YFIELD               IYEFLD              0             x 10-6  
       ZFIELD               IZEFLD              0             x 10-6  
       ZSCALE_EXP           IZEXPS         OFF         [  0]    ***   
    -------------------------------------------------------------------
   3 entries found in Z-matrix 
   Job Title : Hypochlorous acid DBOC calculation                                              
   There are  3 unique internal coordinates.
   Of these,  0 will be optimized.
   User supplied Z-matrix: 
--------------------------------------------------------------------------------
       SYMBOL    BOND      LENGTH    ANGLE     ANGLE     DIHED     ANGLE
                  TO      (ANGST)    WRT      (DEG)      WRT      (DEG)
--------------------------------------------------------------------------------
        O    
        H          1         ROH  
        CL         1         ROCL       2        A    
                  *Initial values for internal coordinates* 
                      Name             Value
                        ROH             1.0500000000
                        ROCL            1.6830000000
                        A             107.0000000000
--------------------------------------------------------------------------------
  read isotopes from ZMAT file 
   Rotational constants (in cm-1): 
          0.4845398575             0.4978667533            18.1014611173
   Rotational constants (in MHz): 
      14526.1415231990         14925.6718633767        542668.2281995534
********************************************************************************
   The full molecular point group is C s .
   The largest Abelian subgroup of the full molecular point group is C s .
   The computational point group is C s .
********************************************************************************
--------------------------------------------------------------------------------
   Analysis of internal coordinates specified by Z-matrix 
--------------------------------------------------------------------------------
   *The nuclear repulsion energy is   50.829556546033906 a.u.
   *There are   3 degrees of freedom within the tot. symm. molecular subspace.
   *Z-matrix requests optimization of   0 coordinates.
   *The optimization is constrained.
   *The following   3 parameters can have non-zero 
    derivatives within the totally symmetric subspace:
             A    [ 3]  ROH  [ 1]  ROCL [ 2]
   *The following   0 parameters are to be optimized:

   *The following coordinates must be varied in an  unconstrained optimization.
             A    [ 3]  ROH  [ 1]  ROCL [ 2]
--------------------------------------------------------------------------------


 ----------------------------------------------------------------
         Coordinates used in calculation (QCOMP) 
 ----------------------------------------------------------------
 Z-matrix   Atomic            Coordinates (in bohr)
  Symbol    Number           X              Y              Z
 ----------------------------------------------------------------
     O         8        -2.16383833     0.13235769     0.00000000
     H         1        -2.82826288    -1.73730556     0.00000000
     CL       17         1.01338804    -0.00990507     0.00000000
 ----------------------------------------------------------------
 
   Interatomic distance matrix (Angstroms) 
 
                 O             H             CL   
                [ 1]        [ 2]        [ 3]
  O    [ 1]     0.00000
  H    [ 2]     1.05000     0.00000
  CL   [ 3]     1.68300     2.22897     0.00000
 rotcon2
   Rotational constants (in cm-1): 
         18.1014611173             0.4978667533             0.4845398575
   Rotational constants (in MHz): 
     542668.2281995555         14925.6718633767         14526.1415231990
  ECPDATA file not present.   Using default ECPDATA. 
  @GTFLGS-I, Hessian will be transformed to curvilinear coordinates.
  There are  157 basis functions.
 @CHECKOUT-I, Total execution time (CPU/WALL):        0.24/       2.21 seconds.
--executable xjoda finished with status     0 in        2.25 seconds (walltime).
 --invoking executable--
/home/asmola/.local/bin/xvmol
 SERIAL VERSION OF MOLECULE STARTED
********************************************************************************
                    INPUT FROM MOL FILE
********************************************************************************
INTGRL        1    0    1    0    0    0    0    0    0                         
         *** CFOUR Program System (Release V0.1) ***                            
Hypochlorous acid DBOC calculation                                              
    3    1 Z          0.10E-08              0    0                              
   9999.00      3.00                                                            
          8.00000000    1    4    1    1    1    1                              
O #1  -2.163838329757709   0.132357685857444   0.000000000000000                
   13    7                                                                      
   15330.0000000000       5.080000000000000E-004 -1.150000000000000E-004        
  0.000000000000000E+000  0.000000000000000E+000  0.000000000000000E+000        
  0.000000000000000E+000  0.000000000000000E+000                                
   2299.00000000000       3.929000000000000E-003 -8.950000000000000E-004        
  0.000000000000000E+000  0.000000000000000E+000  0.000000000000000E+000        
  0.000000000000000E+000  0.000000000000000E+000                                
   522.400000000000       2.024300000000000E-002 -4.636000000000000E-003        
  0.000000000000000E+000  0.000000000000000E+000  0.000000000000000E+000        
  0.000000000000000E+000  0.000000000000000E+000                                
   147.300000000000       7.918100000000000E-002 -1.872400000000000E-002        
  0.000000000000000E+000  0.000000000000000E+000  0.000000000000000E+000        
  0.000000000000000E+000  0.000000000000000E+000                                
   47.5500000000000       0.230687000000000      -5.846300000000000E-002        
  0.000000000000000E+000  0.000000000000000E+000  0.000000000000000E+000        
  0.000000000000000E+000  0.000000000000000E+000                                
   16.7600000000000       0.433118000000000      -0.136463000000000             
  0.000000000000000E+000  0.000000000000000E+000  0.000000000000000E+000        
  0.000000000000000E+000  0.000000000000000E+000                                
   6.20700000000000       0.350260000000000      -0.175740000000000             
  0.000000000000000E+000  0.000000000000000E+000  0.000000000000000E+000        
  0.000000000000000E+000  0.000000000000000E+000                                
   1.75200000000000       4.272800000000000E-002  0.160934000000000             
   1.00000000000000       0.000000000000000E+000  0.000000000000000E+000        
  0.000000000000000E+000  0.000000000000000E+000                                
  0.688200000000000      -8.154000000000000E-003  0.603418000000000             
  0.000000000000000E+000  0.000000000000000E+000  0.000000000000000E+000        
  0.000000000000000E+000  0.000000000000000E+000                                
  0.238400000000000       2.381000000000000E-003  0.378765000000000             
  0.000000000000000E+000   1.00000000000000       0.000000000000000E+000        
  0.000000000000000E+000  0.000000000000000E+000                                
   7.84500000000000       0.000000000000000E+000  0.000000000000000E+000        
  0.000000000000000E+000  0.000000000000000E+000   1.00000000000000             
  0.000000000000000E+000  0.000000000000000E+000                                
   21.0320000000000       0.000000000000000E+000  0.000000000000000E+000        
  0.000000000000000E+000  0.000000000000000E+000  0.000000000000000E+000        
   1.00000000000000       0.000000000000000E+000                                
  7.376000000000001E-002  0.000000000000000E+000  0.000000000000000E+000        
  0.000000000000000E+000  0.000000000000000E+000  0.000000000000000E+000        
  0.000000000000000E+000   1.00000000000000                                     
    8    6                                                                      
   34.4600000000000       1.592800000000000E-002  0.000000000000000E+000        
  0.000000000000000E+000  0.000000000000000E+000  0.000000000000000E+000        
  0.000000000000000E+000                                                        
   7.74900000000000       9.974000000000000E-002  0.000000000000000E+000        
  0.000000000000000E+000  0.000000000000000E+000  0.000000000000000E+000        
  0.000000000000000E+000                                                        
   2.28000000000000       0.310492000000000       0.000000000000000E+000        
  0.000000000000000E+000  0.000000000000000E+000  0.000000000000000E+000        
  0.000000000000000E+000                                                        
  0.715600000000000       0.491026000000000        1.00000000000000             
  0.000000000000000E+000  0.000000000000000E+000  0.000000000000000E+000        
  0.000000000000000E+000                                                        
  0.214000000000000       0.336337000000000       0.000000000000000E+000        
   1.00000000000000       0.000000000000000E+000  0.000000000000000E+000        
  0.000000000000000E+000                                                        
   15.1590000000000       0.000000000000000E+000  0.000000000000000E+000        
  0.000000000000000E+000   1.00000000000000       0.000000000000000E+000        
  0.000000000000000E+000                                                        
   57.4370000000000       0.000000000000000E+000  0.000000000000000E+000        
  0.000000000000000E+000  0.000000000000000E+000   1.00000000000000             
  0.000000000000000E+000                                                        
  5.974000000000000E-002  0.000000000000000E+000  0.000000000000000E+000        
  0.000000000000000E+000  0.000000000000000E+000  0.000000000000000E+000        
   1.00000000000000                                                             
    4    4                                                                      
   2.31400000000000        1.00000000000000       0.000000000000000E+000        
  0.000000000000000E+000  0.000000000000000E+000                                
  0.645000000000000       0.000000000000000E+000   1.00000000000000             
  0.000000000000000E+000  0.000000000000000E+000                                
   15.8580000000000       0.000000000000000E+000  0.000000000000000E+000        
   1.00000000000000       0.000000000000000E+000                                
  0.214000000000000       0.000000000000000E+000  0.000000000000000E+000        
  0.000000000000000E+000   1.00000000000000                                     
    2    2                                                                      
   1.42800000000000        1.00000000000000       0.000000000000000E+000        
  0.500000000000000       0.000000000000000E+000   1.00000000000000             
          1.00000000    1    3    1    1    1                                   
H #2  -2.828262881847964  -1.737305555368929   0.000000000000000                
    6    4                                                                      
   33.8700000000000       6.068000000000000E-003  0.000000000000000E+000        
  0.000000000000000E+000  0.000000000000000E+000                                
   5.09500000000000       4.530800000000000E-002  0.000000000000000E+000        
  0.000000000000000E+000  0.000000000000000E+000                                
   1.15900000000000       0.202822000000000       0.000000000000000E+000        
  0.000000000000000E+000  0.000000000000000E+000                                
  0.325800000000000       0.503903000000000        1.00000000000000             
  0.000000000000000E+000  0.000000000000000E+000                                
  0.102700000000000       0.383421000000000       0.000000000000000E+000        
   1.00000000000000       0.000000000000000E+000                                
  2.526000000000000E-002  0.000000000000000E+000  0.000000000000000E+000        
  0.000000000000000E+000   1.00000000000000                                     
    3    3                                                                      
   1.40700000000000        1.00000000000000       0.000000000000000E+000        
  0.000000000000000E+000                                                        
  0.388000000000000       0.000000000000000E+000   1.00000000000000             
  0.000000000000000E+000                                                        
  0.102000000000000       0.000000000000000E+000  0.000000000000000E+000        
   1.00000000000000                                                             
    2    2                                                                      
   1.05700000000000        1.00000000000000       0.000000000000000E+000        
  0.247000000000000       0.000000000000000E+000   1.00000000000000             
         17.00000000    1    4    1    1    1    1                              
CL#3   1.013388037093843  -0.009905070019058   0.000000000000000                
   18    8                                                                      
   456100.000000000       4.930000000000000E-005 -1.380000000000000E-005        
  4.200000000000000E-006  0.000000000000000E+000  0.000000000000000E+000        
  0.000000000000000E+000  0.000000000000000E+000  0.000000000000000E+000        
   68330.0000000000       3.830000000000000E-004 -1.073000000000000E-004        
  3.240000000000000E-005  0.000000000000000E+000  0.000000000000000E+000        
  0.000000000000000E+000  0.000000000000000E+000  0.000000000000000E+000        
   15550.0000000000       2.008500000000000E-003 -5.651000000000000E-004        
  1.711000000000000E-004  0.000000000000000E+000  0.000000000000000E+000        
  0.000000000000000E+000  0.000000000000000E+000  0.000000000000000E+000        
   4405.00000000000       8.385600000000000E-003 -2.361400000000000E-003        
  7.142000000000000E-004  0.000000000000000E+000  0.000000000000000E+000        
  0.000000000000000E+000  0.000000000000000E+000  0.000000000000000E+000        
   1439.00000000000       2.947030000000000E-002 -8.458900000000000E-003        
  2.567000000000000E-003  0.000000000000000E+000  0.000000000000000E+000        
  0.000000000000000E+000  0.000000000000000E+000  0.000000000000000E+000        
   520.400000000000       8.783249999999999E-002 -2.596380000000000E-002        
  7.885500000000000E-003  0.000000000000000E+000  0.000000000000000E+000        
  0.000000000000000E+000  0.000000000000000E+000  0.000000000000000E+000        
   203.100000000000       0.211473000000000      -6.863619999999999E-002        
  2.108670000000000E-002  0.000000000000000E+000  0.000000000000000E+000        
  0.000000000000000E+000  0.000000000000000E+000  0.000000000000000E+000        
   83.9600000000000       0.365364000000000      -0.141874000000000             
  4.422640000000000E-002  0.000000000000000E+000  0.000000000000000E+000        
  0.000000000000000E+000  0.000000000000000E+000  0.000000000000000E+000        
   36.2000000000000       0.340884000000000      -0.199319000000000             
  6.516700000000000E-002  0.000000000000000E+000  0.000000000000000E+000        
  0.000000000000000E+000  0.000000000000000E+000  0.000000000000000E+000        
   15.8300000000000       0.102133000000000      -1.956620000000000E-002        
  6.030100000000000E-003  0.000000000000000E+000  0.000000000000000E+000        
  0.000000000000000E+000  0.000000000000000E+000  0.000000000000000E+000        
   6.33400000000000       3.116800000000000E-003  0.499741000000000             
 -0.206495000000000       0.000000000000000E+000  0.000000000000000E+000        
  0.000000000000000E+000  0.000000000000000E+000  0.000000000000000E+000        
   2.69400000000000       1.057500000000000E-003  0.563736000000000             
 -0.405871000000000       0.000000000000000E+000  0.000000000000000E+000        
  0.000000000000000E+000  0.000000000000000E+000  0.000000000000000E+000        
  0.976800000000000      -3.780000000000000E-004  7.903250000000001E-002        
  7.595580000000000E-002   1.00000000000000       0.000000000000000E+000        
  0.000000000000000E+000  0.000000000000000E+000  0.000000000000000E+000        
  0.431300000000000       1.561000000000000E-004 -8.350900000000000E-003        
  0.725661000000000       0.000000000000000E+000  0.000000000000000E+000        
  0.000000000000000E+000  0.000000000000000E+000  0.000000000000000E+000        
  0.162500000000000      -5.140000000000000E-005  2.324600000000000E-003        
  0.394423000000000       0.000000000000000E+000   1.00000000000000             
  0.000000000000000E+000  0.000000000000000E+000  0.000000000000000E+000        
   15.0640000000000       0.000000000000000E+000  0.000000000000000E+000        
  0.000000000000000E+000  0.000000000000000E+000  0.000000000000000E+000        
   1.00000000000000       0.000000000000000E+000  0.000000000000000E+000        
   2.87400000000000       0.000000000000000E+000  0.000000000000000E+000        
  0.000000000000000E+000  0.000000000000000E+000  0.000000000000000E+000        
  0.000000000000000E+000   1.00000000000000       0.000000000000000E+000        
  5.910000000000000E-002  0.000000000000000E+000  0.000000000000000E+000        
  0.000000000000000E+000  0.000000000000000E+000  0.000000000000000E+000        
  0.000000000000000E+000  0.000000000000000E+000   1.00000000000000             
   12    7                                                                      
   663.300000000000       2.404500000000000E-003 -6.521000000000000E-004        
  0.000000000000000E+000  0.000000000000000E+000  0.000000000000000E+000        
  0.000000000000000E+000  0.000000000000000E+000                                
   156.800000000000       1.921480000000000E-002 -5.194500000000000E-003        
  0.000000000000000E+000  0.000000000000000E+000  0.000000000000000E+000        
  0.000000000000000E+000  0.000000000000000E+000                                
   49.9800000000000       8.850970000000000E-002 -2.469380000000000E-002        
  0.000000000000000E+000  0.000000000000000E+000  0.000000000000000E+000        
  0.000000000000000E+000  0.000000000000000E+000                                
   18.4200000000000       0.256020000000000      -7.281670000000000E-002        
  0.000000000000000E+000  0.000000000000000E+000  0.000000000000000E+000        
  0.000000000000000E+000  0.000000000000000E+000                                
   7.24000000000000       0.436927000000000      -0.134030000000000             
  0.000000000000000E+000  0.000000000000000E+000  0.000000000000000E+000        
  0.000000000000000E+000  0.000000000000000E+000                                
   2.92200000000000       0.350334000000000      -9.477420000000000E-002        
  0.000000000000000E+000  0.000000000000000E+000  0.000000000000000E+000        
  0.000000000000000E+000  0.000000000000000E+000                                
   1.02200000000000       5.854950000000000E-002  0.262289000000000             
   1.00000000000000       0.000000000000000E+000  0.000000000000000E+000        
  0.000000000000000E+000  0.000000000000000E+000                                
  0.381800000000000      -4.584200000000000E-003  0.564667000000000             
  0.000000000000000E+000  0.000000000000000E+000  0.000000000000000E+000        
  0.000000000000000E+000  0.000000000000000E+000                                
  0.130100000000000       2.269700000000000E-003  0.341250000000000             
  0.000000000000000E+000   1.00000000000000       0.000000000000000E+000        
  0.000000000000000E+000  0.000000000000000E+000                                
   9.48000000000000       0.000000000000000E+000  0.000000000000000E+000        
  0.000000000000000E+000  0.000000000000000E+000   1.00000000000000             
  0.000000000000000E+000  0.000000000000000E+000                                
   3.66800000000000       0.000000000000000E+000  0.000000000000000E+000        
  0.000000000000000E+000  0.000000000000000E+000  0.000000000000000E+000        
   1.00000000000000       0.000000000000000E+000                                
  4.190000000000000E-002  0.000000000000000E+000  0.000000000000000E+000        
  0.000000000000000E+000  0.000000000000000E+000  0.000000000000000E+000        
  0.000000000000000E+000   1.00000000000000                                     
    5    5                                                                      
   1.04600000000000        1.00000000000000       0.000000000000000E+000        
  0.000000000000000E+000  0.000000000000000E+000  0.000000000000000E+000        
  0.344000000000000       0.000000000000000E+000   1.00000000000000             
  0.000000000000000E+000  0.000000000000000E+000  0.000000000000000E+000        
   17.9570000000000       0.000000000000000E+000  0.000000000000000E+000        
   1.00000000000000       0.000000000000000E+000  0.000000000000000E+000        
   5.76000000000000       0.000000000000000E+000  0.000000000000000E+000        
  0.000000000000000E+000   1.00000000000000       0.000000000000000E+000        
  0.135000000000000       0.000000000000000E+000  0.000000000000000E+000        
  0.000000000000000E+000  0.000000000000000E+000   1.00000000000000             
    3    3                                                                      
  0.706000000000000        1.00000000000000       0.000000000000000E+000        
  0.000000000000000E+000                                                        
   11.7790000000000       0.000000000000000E+000   1.00000000000000             
  0.000000000000000E+000                                                        
  0.312000000000000       0.000000000000000E+000  0.000000000000000E+000        
   1.00000000000000                                                             
FINISH                                                                          
 
********************************************************************************
 ONE- AND TWO-ELECTRON INTEGRALS OVER SYMMETRY-ADAPTED AOS ARE CALCULATED.

  SPHERICAL HARMONICS ARE USED.
  
  INTEGRALS LESS THAN  0.10E-13 ARE NEGLECTED.

  NUCLEAR REPULSION ENERGY :   50.8295565460 A.U.
  @MOLECU-I, ONE ELECTRON INTEGRALS (CPU/WALL):        0.04/       0.04 SECONDS.
  @TWOEL-I,   14242371 INTEGRALS OF SYMMETRY TYPE  I I I I
  @TWOEL-I,   13475437 INTEGRALS OF SYMMETRY TYPE  I J I J
  @TWOEL-I,    6951814 INTEGRALS OF SYMMETRY TYPE  I I J J
  @TWOEL-I, TOTAL NUMBER OF 2-E INTEGRALS   34669622.
  @MOLECU-I, TWO ELECTRON INTEGRALS (CPU/WALL):       54.10/       9.20 SECONDS.
 @CHECKOUT-I, Total execution time (CPU/WALL):       54.16/       9.26 seconds.

Running with 14 threads/proc

--executable xvmol finished with status     0 in        9.41 seconds (walltime).
 --invoking executable--
/home/asmola/.local/bin/xvmol2ja
 @GETMEM-I,  Allocated    3814 MB of main memory.
 @CHECKOUT-I, Total execution time (CPU/WALL):        0.11/       0.03 seconds.
--executable xvmol2ja finished with status     0 in        0.07 seconds (walltime).
 --invoking executable--
/home/asmola/.local/bin/xvscf
  There are  157 functions in the AO basis.

  There are 2 irreducible representations.

       Irrep        # of functions
         1                104
         2                 53


  Parameters for SCF calculation: 
        SCF reference function:  RHF  
  Maximum number of iterations:  150
     Full symmetry point group: C s 
     Computational point group: C s 
        Initial density matrix: MOREAD                 
     SCF convergence tolerance: 10**(-10)
  DIIS convergence acceleration:  ON
          Latest start for DIIS:   8
                     DIIS order:   6

  Memory information:    1209746 words required.
  Fock matrices are constructed from AO integral file.
 @GETMEM-I,  Allocated       9 MB of main memory.
  Initialization and symmetry analysis required      0.002 seconds.

  @INITGES-I, Occupancies from core Hamiltonian:

          Alpha population by irrep:  10    3
           Beta population by irrep:  10    3


 total no. of electrons in initial guess :  0.000000000000000E+000
  --------------------------------------------------------------------
  Iteration         Total Energy            Largest Density Difference
  --------------------------------------------------------------------
       0            50.829556546033906              0.0000000000D+00
   current occupation vector 
    10  3
    10  3
       1          -365.445469302289666              0.1325990639D+02
   current occupation vector 
    10  3
    10  3
       2          -339.560351050839870              0.1324368900D+02
   current occupation vector 
    10  3
    10  3
       3          -421.342079462980792              0.1073774547D+02
   current occupation vector 
    10  3
    10  3
       4          -337.604575020007189              0.1074237266D+02
   current occupation vector 
    10  3
    10  3
       5          -421.165539079166763              0.1069651429D+02
   current occupation vector 
    10  3
    10  3
       6          -337.552429061481746              0.1069651937D+02
   current occupation vector 
    10  3
    10  3
       7          -421.157862465175810              0.1069461746D+02
   current occupation vector 
    10  3
    10  3
       8          -337.550517164791870              0.1069461690D+02
   current occupation vector 
    10  3
    10  3
       9          -445.752740048565215              0.8311297609D+01
   current occupation vector 
    10  3
    10  3
      10          -467.561811034383254              0.2396947695D+01
   current occupation vector 
    10  3
    10  3
      11          -480.371989271147754              0.1653893057D+01
   current occupation vector 
    10  3
    10  3
      12          -483.114423250734262              0.3131092150D+00
   current occupation vector 
    10  3
    10  3
      13          -484.274897012438487              0.1574594713D+00
   current occupation vector 
    10  3
    10  3
      14          -492.932583067338555              0.9442213517D+00
   current occupation vector 
    10  3
    10  3
      15          -508.391132258259290              0.7399012859D+01
   current occupation vector 
    10  3
    10  3
      16          -525.768105959625927              0.7396328339D+01
   current occupation vector 
    11  2
    11  2
      17          -528.978946600050904              0.3897462796D+01
   current occupation vector 
    11  2
    11  2
      18          -534.240493665031408              0.2330409163D+01
   current occupation vector 
    10  3
    10  3
      19          -534.810844210429991              0.6064231173D+00
   current occupation vector 
    10  3
    10  3
      20          -534.903192029166803              0.2338818014D+00
   current occupation vector 
    10  3
    10  3
      21          -534.913865929642157              0.1308917423D+00
   current occupation vector 
    10  3
    10  3
      22          -534.914829980117020              0.2524059169D-01
   current occupation vector 
    10  3
    10  3
      23          -534.915098143174646              0.1933658816D-01
   current occupation vector 
    10  3
    10  3
      24          -534.915127677589680              0.6762107542D-02
   current occupation vector 
    10  3
    10  3
      25          -534.915133069010267              0.2773675927D-02
   current occupation vector 
    10  3
    10  3
      26          -534.915133644659250              0.1025598805D-02
   current occupation vector 
    10  3
    10  3
      27          -534.915133721706070              0.3663554293D-03
   current occupation vector 
    10  3
    10  3
      28          -534.915133738036729              0.2379738984D-03
   current occupation vector 
    10  3
    10  3
      29          -534.915133738418149              0.2483455722D-04
   current occupation vector 
    10  3
    10  3
      30          -534.915133738455893              0.9606851163D-05
   current occupation vector 
    10  3
    10  3
      31          -534.915133738456348              0.1256516303D-05
   current occupation vector 
    10  3
    10  3
      32          -534.915133738453846              0.6464128919D-06
   current occupation vector 
    10  3
    10  3
      33          -534.915133738453392              0.2155089652D-06
   current occupation vector 
    10  3
    10  3
      34          -534.915133738449754              0.8283519737D-07
   current occupation vector 
    10  3
    10  3
      35          -534.915133738448390              0.2576401821D-07
   current occupation vector 
    10  3
    10  3
      36          -534.915133738453960              0.1668348325D-07
   current occupation vector 
    10  3
    10  3
      37          -534.915133738455324              0.9372314647D-08
   current occupation vector 
    10  3
    10  3
      38          -534.915133738455893              0.2089989418D-08
   current occupation vector 
    10  3
    10  3
      39          -534.915133738454870              0.1400273841D-08
   current occupation vector 
    10  3
    10  3
      40          -534.915133738451914              0.1406150751D-09
   current occupation vector 
    10  3
    10  3

  SCF has converged.

 Density matrix saved to file den.dat
 total electron number:   26.0000000000003     
     E(SCF)=      -534.915133738455211              0.4565749168D-10

  Eigenvector printing suppressed.

 @PUTMOS-I, Writing converged MOs to NEWMOS. 
 @PUTMOS-I, Symmetry   1 Full Blocks 26 Partial Blocksize   0
 @PUTMOS-I, Symmetry   2 Full Blocks 13 Partial Blocksize   1
 @PUTFOCK-I, Writing converged Fock matrix to NEWFOCK. 
 @PUTFOCK-I, Symmetry   1 Full Blocks 26 Partial Blocksize   0
 @PUTFOCK-I, Symmetry   2 Full Blocks 13 Partial Blocksize   1


 
  ORBITAL EIGENVALUES (ALPHA)  (1H = 27.2113834 eV)

       MO #        E(hartree)               E(eV)           FULLSYM    COMPSYM
       ----   --------------------   --------------------   -------   ---------
    1     1        -104.8891939903       -2854.1800721861     A'        A'  (1)
    2     2         -20.6466064072        -561.8227228543     A'        A'  (1)
    3     3         -10.6091135079        -288.6886551975     A'        A'  (1)
    4     4          -8.0758387017        -219.7547431895     A'        A'  (1)
    5     5          -8.0735083875        -219.6913321161     A'        A'  (1)
    6   105          -8.0733577705        -219.6872336189     A''       A'' (2)
    7     6          -1.3959808058         -37.9865689263     A'        A'  (1)
    8     7          -1.0539215693         -28.6786638951     A'        A'  (1)
    9     8          -0.7013945790         -19.0859168045     A'        A'  (1)
   10   106          -0.6110706229         -16.6280770048     A''       A'' (2)
   11     9          -0.6013436829         -16.3633935095     A'        A'  (1)
   12    10          -0.4632096231         -12.6045746499     A'        A'  (1)
   13   107          -0.4407306153         -11.9928897503     A''       A'' (2)
  +++++++++++++++++++++++++++++++++++++++++++++++++++++++++++++++++++++++++++++
   14    11           0.0262631774           0.7146573892     A'        A'  (1)
   15    12           0.0628504998           1.7102490479     A'        A'  (1)
   16    13           0.1100664019           2.9950590607     A'        A'  (1)
   17   108           0.1163360960           3.1656661108     A''       A'' (2)
   18    14           0.1390473323           3.7836702687     A'        A'  (1)
   19    15           0.1571954638           4.2775060356     A'        A'  (1)
   20    16           0.1731479073           4.7115940905     A'        A'  (1)
   21    17           0.1749166896           4.7597251028     A'        A'  (1)
   22   109           0.1898084827           5.1649513950     A''       A'' (2)
   23    18           0.2386792913           6.4947937058     A'        A'  (1)
   24   110           0.2572322649           6.9996457840     A''       A'' (2)
   25    19           0.3031913748           8.2502567437     A'        A'  (1)
   26    20           0.3240284333           8.8172619319     A'        A'  (1)
   27   111           0.3829268601          10.4199696047     A''       A'' (2)
   28    21           0.3912668767          10.6469129946     A'        A'  (1)
   29    22           0.4001284643          10.8880490504     A'        A'  (1)
   30   112           0.4213097723          11.4644217452     A''       A'' (2)
   31    23           0.4494123768          12.2291324899     A'        A'  (1)
   32    24           0.5032742052          13.6947873518     A'        A'  (1)
   33    25           0.6040901800          16.4381294975     A'        A'  (1)
   34   113           0.6136106051          16.6971934334     A''       A'' (2)
   35    26           0.6784625542          18.4619046861     A'        A'  (1)
   36    27           0.6992376367          19.0272234199     A'        A'  (1)
   37   114           0.7152164359          19.4620286500     A''       A'' (2)
   38    28           0.7253065450          19.7365944793     A'        A'  (1)
   39   115           0.7691462293          20.9295329363     A''       A'' (2)
   40    29           0.7724771860          21.0201728757     A'        A'  (1)
   41    30           0.8671537443          23.5964530022     A'        A'  (1)
   42    31           0.8743036268          23.7910111960     A'        A'  (1)
   43   116           0.8815157193          23.9872622106     A''       A'' (2)
   44   117           0.9029069456          24.5693470717     A''       A'' (2)
   45    32           0.9093998092          24.7460268714     A'        A'  (1)
   46   118           0.9200220767          25.0350734650     A''       A'' (2)
   47    33           0.9258132384          25.1926589856     A'        A'  (1)
   48    34           0.9636004503          26.2209012979     A'        A'  (1)
   49    35           0.9890105569          26.9123454513     A'        A'  (1)
   50   119           0.9971274356          27.1332169478     A''       A'' (2)
   51    36           1.0144783755          27.6053600269     A'        A'  (1)
   52    37           1.1178738464          30.4188938275     A'        A'  (1)
   53   120           1.1306137800          30.7655650454     A''       A'' (2)
   54   121           1.2115827885          32.9688437779     A''       A'' (2)
   55    38           1.2267099733          33.3804754029     A'        A'  (1)
   56    39           1.2549584099          34.1491544426     A'        A'  (1)
   57    40           1.3235850517          36.0165803043     A'        A'  (1)
   58    41           1.3962866043          37.9948901263     A'        A'  (1)
   59   122           1.3989980367          38.0686719529     A''       A'' (2)
   60   123           1.4937620198          40.6473310286     A''       A'' (2)
   61   124           1.5306303964          41.6505705592     A''       A'' (2)
   62    42           1.5720740683          42.7783102057     A'        A'  (1)
   63    43           1.6579214443          45.1143360688     A'        A'  (1)
   64    44           1.7171328746          46.7255609984     A'        A'  (1)
   65    45           1.8195202416          49.5116628995     A'        A'  (1)
   66    46           1.8749619094          51.0203073770     A'        A'  (1)
   67   125           2.1764588870          59.2244572280     A''       A'' (2)
   68   126           2.2382126436          60.9048623757     A''       A'' (2)
   69    47           2.2432213814          61.0411570612     A'        A'  (1)
   70    48           2.2917567543          62.3618717015     A'        A'  (1)
   71    49           2.3105157257          62.8723292648     A'        A'  (1)
   72   127           2.3212186688          63.1635711525     A''       A'' (2)
   73    50           2.3668462623          64.4051610917     A'        A'  (1)
   74    51           2.4052161456          65.4492586980     A'        A'  (1)
   75   128           2.4523310264          66.7313197831     A''       A'' (2)
   76    52           2.4530366331          66.7505203163     A'        A'  (1)
   77   129           2.4771196153          67.4058515786     A''       A'' (2)
   78   130           2.4844475675          67.6052552961     A''       A'' (2)
   79    53           2.4994949170          68.0147144939     A'        A'  (1)
   80    54           2.5986581576          70.7130834528     A'        A'  (1)
   81   131           2.7255781777          74.1667527796     A''       A'' (2)
   82    55           2.7564704739          75.0073748969     A'        A'  (1)
   83   132           2.8948287099          78.7722939024     A''       A'' (2)
   84    56           2.9392395910          79.9807754160     A'        A'  (1)
   85    57           2.9666794146          80.7274509752     A'        A'  (1)
   86   133           3.0587575581          83.2330246416     A''       A'' (2)
   87    58           3.0708698588          83.5626170995     A'        A'  (1)
   88    59           3.1278193858          85.1122925139     A'        A'  (1)
   89   134           3.1290849732          85.1467308980     A''       A'' (2)
   90    60           3.2573113685          88.6359485025     A'        A'  (1)
   91    61           3.3007352447          89.8175722461     A'        A'  (1)
   92   135           3.3627832204          91.5059835018     A''       A'' (2)
   93    62           3.4643892437          94.2708239582     A'        A'  (1)
   94    63           3.6325196250          98.8458842250     A'        A'  (1)
   95    64           3.8156380120         103.8287888615     A'        A'  (1)
   96   136           4.0460738435         110.0992666209     A''       A'' (2)
   97   137           4.0610250435         110.5061094545     A''       A'' (2)
   98    65           4.2490457876         115.6224140118     A'        A'  (1)
   99   138           4.3255571502         117.7043940321     A''       A'' (2)
  100    66           4.5021371203         122.5093792996     A'        A'  (1)
  101    67           4.5829353413         124.7080106694     A'        A'  (1)
  102    68           4.7690684359         129.7729496712     A'        A'  (1)
  103    69           4.9713493636         135.2772935493     A'        A'  (1)
  104   139           5.0269349227         136.7898535071     A''       A'' (2)
  105    70           5.3355754718         145.1883898240     A'        A'  (1)
  106    71           5.7585935443         156.6992967786     A'        A'  (1)
  107    72           6.3277193414         172.1859970462     A'        A'  (1)
  108   140           6.6319212037         180.4637505521     A''       A'' (2)
  109    73           6.6919829745         182.0981144246     A'        A'  (1)
  110   141           6.7414101649         183.4430966538     A''       A'' (2)
  111    74           6.7783505111         184.4482945782     A'        A'  (1)
  112   142           7.0062416436         190.6495275568     A''       A'' (2)
  113    75           7.0621531747         192.1709576652     A'        A'  (1)
  114   143           7.1444915005         194.4114974186     A''       A'' (2)
  115    76           7.2216891388         196.5121519522     A'        A'  (1)
  116   144           7.2533739266         197.3743388603     A''       A'' (2)
  117    77           7.5408808682         205.1978004784     A'        A'  (1)
  118    78           7.7890789711         211.9516142153     A'        A'  (1)
  119    79           8.3785912660         227.9930592919     A'        A'  (1)
  120   145          10.3510792733         281.6671867099     A''       A'' (2)
  121    80          10.3517208995         281.6846462461     A'        A'  (1)
  122   146          10.3892172794         282.7049746161     A''       A'' (2)
  123    81          10.4410460503         284.1153071714     A'        A'  (1)
  124    82          10.6240381317         289.0947748574     A'        A'  (1)
  125   147          12.6812137956         345.0733705690     A''       A'' (2)
  126    83          12.7350405911         346.5380721392     A'        A'  (1)
  127    84          13.2262496284         359.9045495833     A'        A'  (1)
  128    85          18.2747393985         497.2809403067     A'        A'  (1)
  129   148          26.1370415254         711.2250578906     A''       A'' (2)
  130    86          26.5840137374         723.3877901202     A'        A'  (1)
  131    87          27.2916558606         742.6437112439     A'        A'  (1)
  132    88          29.0861092146         791.4732694527     A'        A'  (1)
  133   149          36.8967043214        1004.0103674863     A''       A'' (2)
  134   150          36.8972299137        1004.0246695788     A''       A'' (2)
  135    89          36.8973161094        1004.0270150828     A'        A'  (1)
  136    90          36.9013556053        1004.1369353544     A'        A'  (1)
  137   151          36.9059077711        1004.2608060843     A''       A'' (2)
  138    91          36.9061128801        1004.2663873851     A'        A'  (1)
  139    92          36.9100572222        1004.3737183893     A'        A'  (1)
  140   152          43.9100919964        1194.8543484443     A''       A'' (2)
  141    93          43.9325307382        1195.4649376497     A'        A'  (1)
  142   153          43.9511576123        1195.9718006625     A''       A'' (2)
  143    94          44.0733815307        1199.2976825651     A'        A'  (1)
  144    95          44.1340032194        1200.9472825803     A'        A'  (1)
  145   154          46.4842022250        1264.8994487865     A''       A'' (2)
  146    96          46.4845765770        1264.9096354227     A'        A'  (1)
  147   155          46.5089205906        1265.5720697113     A''       A'' (2)
  148    97          46.5371045241        1266.3389935320     A'        A'  (1)
  149    98          46.6256158287        1268.7475085771     A'        A'  (1)
  150   156          55.0209094660        1497.1950624959     A''       A'' (2)
  151    99          55.0798233285        1498.7981901958     A'        A'  (1)
  152   100          55.6531703113        1514.3997547662     A'        A'  (1)
  153   101         103.8592603526        2826.1541530959     A'        A'  (1)
  154   157         138.2810323991        3762.8181895592     A''       A'' (2)
  155   102         138.5994623563        3771.4831092117     A'        A'  (1)
  156   103         139.1772878374        3787.2065399151     A'        A'  (1)
  157   104         149.8434734037        4077.4482047762     A'        A'  (1)


  VSCF finished.

 @CHECKOUT-I, Total execution time (CPU/WALL):       67.25/      13.28 seconds.
--executable xvscf finished with status     0 in       13.35 seconds (walltime).
 --invoking executable--
/home/asmola/.local/bin/xvtran
 @GETMEM-I,  Allocated    3814 MB of main memory.
  Full RHF integral transformation
  Transformation of IIII integrals :
  1 pass through the AO integral file was required.
    14242371 AO integrals were read.
    15933126 MO integrals were written to HF2.
  Transformation of IIJJ integrals :
  1 pass through the AO integral file was required.
     6951814 AO integrals were read.
     7813260 MO integrals were written to HF2.
  Transformation of IJIJ integrals :
  1 pass through the AO integral file was required.
    13475437 AO integrals were read.
    15193828 MO integrals were written to HF2.
  Summary of active molecular orbitals: 
------------------------------------------------------------------------
 
  Index      Eigenvalue    Symmetry    Index      Eigenvalue    Symmetry
------------------------------------------------------------------------
     1      -104.8891940        1        80         7.5408809        1
     2       -20.6466064        1        81         7.7890790        1
     3       -10.6091135        1        82         8.3785913        1
     4        -8.0758387        1        83        10.3517209        1
     5        -8.0735084        1        84        10.4410461        1
     6        -1.3959808        1        85        10.6240381        1
     7        -1.0539216        1        86        12.7350406        1
     8        -0.7013946        1        87        13.2262496        1
     9        -0.6013437        1        88        18.2747394        1
    10        -0.4632096        1        89        26.5840137        1
    11        -8.0733578        2        90        27.2916559        1
    12        -0.6110706        2        91        29.0861092        1
    13        -0.4407306        2        92        36.8973161        1
    14         0.0262632        1        93        36.9013556        1
    15         0.0628505        1        94        36.9061129        1
    16         0.1100664        1        95        36.9100572        1
    17         0.1390473        1        96        43.9325307        1
    18         0.1571955        1        97        44.0733815        1
    19         0.1731479        1        98        44.1340032        1
    20         0.1749167        1        99        46.4845766        1
    21         0.2386793        1       100        46.5371045        1
    22         0.3031914        1       101        46.6256158        1
    23         0.3240284        1       102        55.0798233        1
    24         0.3912669        1       103        55.6531703        1
    25         0.4001285        1       104       103.8592604        1
    26         0.4494124        1       105       138.5994624        1
    27         0.5032742        1       106       139.1772878        1
    28         0.6040902        1       107       149.8434734        1
    29         0.6784626        1       108         0.1163361        2
    30         0.6992376        1       109         0.1898085        2
    31         0.7253065        1       110         0.2572323        2
    32         0.7724772        1       111         0.3829269        2
    33         0.8671537        1       112         0.4213098        2
    34         0.8743036        1       113         0.6136106        2
    35         0.9093998        1       114         0.7152164        2
    36         0.9258132        1       115         0.7691462        2
    37         0.9636005        1       116         0.8815157        2
    38         0.9890106        1       117         0.9029069        2
    39         1.0144784        1       118         0.9200221        2
    40         1.1178738        1       119         0.9971274        2
    41         1.2267100        1       120         1.1306138        2
    42         1.2549584        1       121         1.2115828        2
    43         1.3235851        1       122         1.3989980        2
    44         1.3962866        1       123         1.4937620        2
    45         1.5720741        1       124         1.5306304        2
    46         1.6579214        1       125         2.1764589        2
    47         1.7171329        1       126         2.2382126        2
    48         1.8195202        1       127         2.3212187        2
    49         1.8749619        1       128         2.4523310        2
    50         2.2432214        1       129         2.4771196        2
    51         2.2917568        1       130         2.4844476        2
    52         2.3105157        1       131         2.7255782        2
    53         2.3668463        1       132         2.8948287        2
    54         2.4052161        1       133         3.0587576        2
    55         2.4530366        1       134         3.1290850        2
    56         2.4994949        1       135         3.3627832        2
    57         2.5986582        1       136         4.0460738        2
    58         2.7564705        1       137         4.0610250        2
    59         2.9392396        1       138         4.3255572        2
    60         2.9666794        1       139         5.0269349        2
    61         3.0708699        1       140         6.6319212        2
    62         3.1278194        1       141         6.7414102        2
    63         3.2573114        1       142         7.0062416        2
    64         3.3007352        1       143         7.1444915        2
    65         3.4643892        1       144         7.2533739        2
    66         3.6325196        1       145        10.3510793        2
    67         3.8156380        1       146        10.3892173        2
    68         4.2490458        1       147        12.6812138        2
    69         4.5021371        1       148        26.1370415        2
    70         4.5829353        1       149        36.8967043        2
    71         4.7690684        1       150        36.8972299        2
    72         4.9713494        1       151        36.9059078        2
    73         5.3355755        1       152        43.9100920        2
    74         5.7585935        1       153        43.9511576        2
    75         6.3277193        1       154        46.4842022        2
    76         6.6919830        1       155        46.5089206        2
    77         6.7783505        1       156        55.0209095        2
    78         7.0621532        1       157       138.2810324        2
    79         7.2216891        1
------------------------------------------------------------------------
  -104.889193990264       -20.6466064071670       -10.6091135078984     
  -8.07583870173626       -8.07350838752740       -1.39598080582326     
  -1.05392156927654      -0.701394579024755      -0.601343682862388     
 -0.463209623143854       -8.07335777051619      -0.611070622923208     
 -0.440730615345859       2.626317738802988E-002  6.285049983682664E-002
  0.110066401867712       0.139047332253338       0.157195463849546     
  0.173147907300748       0.174916689563441       0.238679291321942     
  0.303191374816710       0.324028433331985       0.391266876736398     
  0.400128464264694       0.449412376803349       0.503274205155299     
  0.604090180048786       0.678462554244501       0.699237636699143     
  0.725306545030044       0.772477185988060       0.867153744272883     
  0.874303626767580       0.909399809175971       0.925813238353134     
  0.963600450315528       0.989010556931080        1.01447837550627     
   1.11787384640846        1.22670997325563        1.25495840989140     
   1.32358505169999        1.39628660431481        1.57207406830089     
   1.65792144433281        1.71713287455939        1.81952024164563     
   1.87496190939558        2.24322138143179        2.29175675432568     
   2.31051572573999        2.36684626227906        2.40521614560708     
   2.45303663305506        2.49949491703998        2.59865815763150     
   2.75647047393055        2.93923959102922        2.96667941458807     
   3.07086985880768        3.12781938583620        3.25731136854001     
   3.30073524472566        3.46438924373946        3.63251962504022     
   3.81563801204913        4.24904578764771        4.50213712028991     
   4.58293534129509        4.76906843593815        4.97134936363756     
   5.33557547184350        5.75859354429425        6.32771934139002     
   6.69198297447261        6.77835051113774        7.06215317465923     
   7.22168913882392        7.54088086820281        7.78907897109279     
   8.37859126603255        10.3517208994990        10.4410460502857     
   10.6240381316814        12.7350405911084        13.2262496284281     
   18.2747393984650        26.5840137374355        27.2916558606079     
   29.0861092145965        36.8973161093618        36.9013556052577     
   36.9061128801388        36.9100572222022        43.9325307382095     
   44.0733815306549        44.1340032194151        46.4845765769744     
   46.5371045241311        46.6256158287458        55.0798233284900     
   55.6531703112955        103.859260352631        138.599462356319     
   139.177287837379        149.843473403716       0.116336095973271     
  0.189808482689495       0.257232264935950       0.382926860115084     
  0.421309772334234       0.613610605088603       0.715216435852684     
  0.769146229305857       0.881515719286359       0.902906945617025     
  0.920022076679023       0.997127435562648        1.13061378001687     
   1.21158278846962        1.39899803671357        1.49376201977935     
   1.53063039636492        2.17645888698077        2.23821264359891     
   2.32121866881885        2.45233102639891        2.47711961526207     
   2.48444756748719        2.72557817768340        2.89482870990029     
   3.05875755811899        3.12908497324096        3.36278322041644     
   4.04607384352733        4.06102504345721        4.32555715017643     
   5.02693492265262        6.63192120368739        6.74141016490148     
   7.00624164359010        7.14449150051679        7.25337392659909     
   10.3510792733118        10.3892172794174        12.6812137955844     
   26.1370415254447        36.8967043214074        36.8972299136710     
   36.9059077710933        43.9100919964359        43.9511576123132     
   46.4842022249585        46.5089205906110        55.0209094659973     
   138.281032399081     
 @CHECKOUT-I, Total execution time (CPU/WALL):       34.04/      19.17 seconds.
--executable xvtran finished with status     0 in       19.21 seconds (walltime).
 --invoking executable--
/home/asmola/.local/bin/xintprc
 @GETMEM-I,  Allocated    3814 MB of main memory.
  Processing integrals for CCSD calculation.
  @GMOIAA-I, Processing MO integrals for spin case AA.
  @GMOIAA-I, Generation of integral list completed.
                      TYPE                NUMBER
                      ----               --------
                      PPPP              27524020
                      PPPH               9932000
                      PPHH                900748
                      PHPH                491140
                      PHHH                 89950
                      HHHH                  2356

                     TOTAL              38940214

  @FORMT2-I, Second-order MP correlation energies:
            ------------------------------------------------
            E(SCF)                  =   -534.915133738455 a.u.
            E2(AA)                  =     -0.107933870919 a.u.
            E2(AB)                  =     -0.633005344785 a.u.
            E2(TOT)                 =     -0.848873086623 a.u.
            Total MP2 energy        =   -535.764006825078 a.u.
            ------------------------------------------------
   Largest T2 amplitudes for spin case AB:
       _       _                 _       _                 _       _
   i   j   a   b             i   j   a   b             i   j   a   b
-----------------------------------------------------------------------------
[  9   9  15  15]-0.01992 [  8   8  25  25]-0.01860 [ 13  13 112 112]-0.01774
[  9   9  17  15] 0.01592 [  9   9  15  17] 0.01592 [ 13  13 113 113]-0.01544
[ 10  10  26  26]-0.01517 [  9   9  18  15]-0.01475 [  9   9  15  18]-0.01475
[  9   9  17  17]-0.01449 [ 10  10 117 117]-0.01429 [  9   9  20  15] 0.01341
[  9   9  15  20] 0.01341 [ 13  13 117 117]-0.01291 [ 10  10 111 111]-0.01290
-----------------------------------------------------------------------------
   Norm of T2AB vector (  1799624 symmetry allowed elements):  0.3287373110.
-----------------------------------------------------------------------------
 @CHECKOUT-I, Total execution time (CPU/WALL):        6.42/      10.87 seconds.
--executable xintprc finished with status     0 in       11.10 seconds (walltime).
  calling xvcc 
 --invoking executable--
/home/asmola/.local/bin/xvcc
 @GETMEM-I,  Allocated    3814 MB of main memory.
   CCSD energy will be calculated.
   The total correlation energy is -0.848873086623 a.u.
   The total correlation energy is -0.848467175825 a.u.
  Convergence information after     1 iterations: 
  Largest element of residual vector : -0.12341635E-01.
  Largest element of DIIS residual   : -0.12341635E-01.
   The total correlation energy is -0.862872214779 a.u.
  Convergence information after     2 iterations: 
  Largest element of residual vector : -0.29278150E-02.
  Largest element of DIIS residual   : -0.26426073E-02.
   The total correlation energy is -0.862676453930 a.u.
  Convergence information after     3 iterations: 
  Largest element of residual vector : -0.20552603E-02.
  Largest element of DIIS residual   : -0.12596565E-02.
   The total correlation energy is -0.864069927745 a.u.
  Convergence information after     4 iterations: 
  Largest element of residual vector :  0.29012767E-03.
  Largest element of DIIS residual   : -0.26514411E-03.
   The total correlation energy is -0.864215939014 a.u.
  Convergence information after     5 iterations: 
  Largest element of residual vector : -0.29834062E-03.
  Largest element of DIIS residual   : -0.22494422E-03.
   The total correlation energy is -0.864218968549 a.u.
  Convergence information after     6 iterations: 
  Largest element of residual vector : -0.13775012E-03.
  Largest element of DIIS residual   : -0.10508699E-03.
   The total correlation energy is -0.864220758050 a.u.
  Convergence information after     7 iterations: 
  Largest element of residual vector : -0.97530618E-04.
  Largest element of DIIS residual   : -0.67493565E-04.
   The total correlation energy is -0.864220535292 a.u.
  Convergence information after     8 iterations: 
  Largest element of residual vector : -0.45862470E-04.
  Largest element of DIIS residual   : -0.27534957E-04.
   The total correlation energy is -0.864220344026 a.u.
  Convergence information after     9 iterations: 
  Largest element of residual vector : -0.23465679E-04.
  Largest element of DIIS residual   : -0.12866682E-04.
   The total correlation energy is -0.864221318024 a.u.
  Convergence information after    10 iterations: 
  Largest element of residual vector : -0.10579068E-04.
  Largest element of DIIS residual   : -0.50176540E-05.
   The total correlation energy is -0.864221614680 a.u.
  Convergence information after    11 iterations: 
  Largest element of residual vector : -0.29090813E-05.
  Largest element of DIIS residual   :  0.21574198E-05.
   The total correlation energy is -0.864221818002 a.u.
  Convergence information after    12 iterations: 
  Largest element of residual vector : -0.18320898E-05.
  Largest element of DIIS residual   : -0.95752613E-06.
   The total correlation energy is -0.864221903082 a.u.
  Convergence information after    13 iterations: 
  Largest element of residual vector : -0.52087835E-06.
  Largest element of DIIS residual   : -0.44936850E-06.
   The total correlation energy is -0.864221920432 a.u.
  Convergence information after    14 iterations: 
  Largest element of residual vector : -0.38649805E-06.
  Largest element of DIIS residual   : -0.25769845E-06.
   The total correlation energy is -0.864221924435 a.u.
  Convergence information after    15 iterations: 
  Largest element of residual vector : -0.17392802E-06.
  Largest element of DIIS residual   :  0.12414273E-06.
   The total correlation energy is -0.864221925284 a.u.
  Convergence information after    16 iterations: 
  Largest element of residual vector : -0.11870866E-06.
  Largest element of DIIS residual   : -0.60080079E-07.
   The total correlation energy is -0.864221926159 a.u.
  Convergence information after    17 iterations: 
  Largest element of residual vector : -0.58231387E-07.
  Largest element of DIIS residual   : -0.30744935E-07.
   The total correlation energy is -0.864221926318 a.u.
  Convergence information after    18 iterations: 
  Largest element of residual vector : -0.20792897E-07.
  Largest element of DIIS residual   : -0.13093527E-07.
   The total correlation energy is -0.864221926634 a.u.
  Convergence information after    19 iterations: 
  Largest element of residual vector : -0.12788067E-07.
  Largest element of DIIS residual   : -0.66054187E-08.
   The total correlation energy is -0.864221926831 a.u.
  Convergence information after    20 iterations: 
  Largest element of residual vector : -0.32723172E-08.
  Largest element of DIIS residual   : -0.25436403E-08.
   The total correlation energy is -0.864221926893 a.u.
  Convergence information after    21 iterations: 
  Largest element of residual vector : -0.23718957E-08.
  Largest element of DIIS residual   : -0.14397341E-08.
   The total correlation energy is -0.864221926937 a.u.
  Convergence information after    22 iterations: 
  Largest element of residual vector : -0.96021285E-09.
  Largest element of DIIS residual   : -0.81250878E-09.
   The total correlation energy is -0.864221926936 a.u.
  Convergence information after    23 iterations: 
  Largest element of residual vector : -0.67427829E-09.
  Largest element of DIIS residual   :  0.34953710E-09.
   The total correlation energy is -0.864221926939 a.u.
  Convergence information after    24 iterations: 
  Largest element of residual vector : -0.33057862E-09.
  Largest element of DIIS residual   : -0.26273419E-09.
   The total correlation energy is -0.864221926939 a.u.
  Convergence information after    25 iterations: 
  Largest element of residual vector : -0.17814751E-09.
  Largest element of DIIS residual   : -0.12068236E-09.
   The total correlation energy is -0.864221926940 a.u.
  Convergence information after    26 iterations: 
  Largest element of residual vector : -0.10695413E-09.
  Largest element of DIIS residual   : -0.67374493E-10.
   The total correlation energy is -0.864221926942 a.u.
  Convergence information after    27 iterations: 
[...]
 final tnorm  0.842012449064536     
  norm contr. I: |<0|L dT/dx|0>|^2   0.000000000000000E+000
  norm contr. II: <0|[nabla(1+L)e-T][nabla e^T]|0>  0.475378775547784     
  total norm contribution  0.475378775547784     
 oo  2.087136999239547E-003
 vv  -1.51358085746310     
 vo -2.475108272172798E-002
  Correlated perturbed 1-el contribution to DBOC  -1.53624480318559       cm**-1
  SUM_I |dc_I/dx|^2 contribution to DBOC  0.774358880581010       cm**-1
 
 
  The total diagonal Born-Oppenheimer correction (DBOC) is:      0.0083945687 a.u.
  The total diagonal Born-Oppenheimer correction (DBOC) is:       1842.394877 cm-1
 
 Total CC energy including DBOC  -535.770961096669     
 First-order density matrix is being calculated  (Symmetry block 2, perturbation   3)
 Calculation of the contributions of <pq||rs> to dI(i,j)/dx required   4.0 seconds.
 Calculation of the contributions of <pq||rs> to dI(a,b)/dx required  10.5 seconds.
 Calculation of the contributions of <pq||rs> to dI(i,a)/dx required   6.4 seconds.
 First-order Z-vector equations are solved for 1 perturbation.
 Convergence reached after  21 iterations.
        U*G(pq,rs) contribution is being calculated
             (Symmetry block 2, perturbation   3)

 CCSD contribution to force constants 

        0.0000000000        0.0000000000        0.0000000000
        0.0000000000        0.0000000000        0.0000000000
        0.0000000000        0.0000000000        0.0000000000
        0.0000000000        0.0000000000        0.0000000000
        0.0000000000        0.0000000000        0.0000000000
        0.0000000000        0.0000000000        0.0000000000
        0.0000000000        0.0000000000        0.0000000000
        0.0000000000        0.0000000000        0.0000000000
        0.0000000000        0.0000000000        0.0000000000
        0.0000000000        0.0000000000        0.0000000000
        0.0000000000        0.0000000000        0.0000000000
        0.0000000000        0.0000000000        0.0000000000
        0.0000000000        0.0000000000        0.0000000000
        0.0000000000        0.0000000000        0.0000000000
        0.0000000000        0.0000000000        0.0000000000
        0.0000000000        0.0000000000        0.0000000000
        0.0000000000        0.0000000000        0.0000000000
        0.0000000000        0.0000000000        0.0000000000
        0.0000000000        0.0000000000        0.0000000000
        0.0000000000        0.0000000000        0.0000000000
        0.0000000000        0.0000000000        0.0000000000
        0.0000000000        0.0000000000        0.0000000000
        0.0000000000        0.0000000000        0.0000000000
        0.0000000000        0.0000000000        0.0000000000
        0.0000000000        0.0000000000        0.0000000000
        0.0000000000        0.0000000000        0.0000000000
        0.0707634205        0.0334145319       -0.1041779524

 CCSD contribution to dipole derivatives 

        0.0000000000        0.0000000000        0.0000000000
        0.0000000000        0.0000000000        0.0000000000
        0.0000000000        0.0000000000        0.0000000000
        0.0000000000        0.0000000000        0.0000000000
        0.0000000000        0.0000000000        0.0000000000
        0.0000000000        0.0000000000        0.0000000000
        0.0000000000        0.0000000000        0.0000000000
        0.0000000000        0.0000000000        0.0000000000
        0.0000000000        0.0000000000        0.0124979649
 @CHECKOUT-I, Total execution time (CPU/WALL):      985.72/     251.27 seconds.
--executable xsdcc finished with status     0 in      251.43 seconds (walltime).
 --invoking executable--
/home/asmola/.local/bin/xanti
 @GETMEM-I,  Allocated    3814 MB of main memory.
 CCSD MO derivative gammas will be sorted to Mulliken order.
 @CHECKOUT-I, Total execution time (CPU/WALL):        6.39/       4.97 seconds.
--executable xanti finished with status     0 in        5.10 seconds (walltime).
 --invoking executable--
/home/asmola/.local/bin/xbcktrn
 @GETMEM-I,  Allocated    3814 MB of main memory.
 CCSD MO derivative gammas will be transformed to the AO basis.
 @CHECKOUT-I, Total execution time (CPU/WALL):       11.45/       2.62 seconds.
--executable xbcktrn finished with status     0 in        2.69 seconds (walltime).
 --invoking executable--
/home/asmola/.local/bin/xvdint
 @GETMEM-I,  Allocated    3814 MB of main memory.
 One- and two-electron integral derivatives are calculated
 for RHF-CC/MBPT hessians and dipole derivatives.
 Spherical gaussians are used.
  magnet F F
 Evaluation of 2el integral derivatives

                      Two-electron integral gradient
                      ------------------------------

                         O #1 x     0.0000000000
                         O #1 y     0.0000000000
                         H #2 x     0.0000000000
                         H #2 y     0.0000000000
                         CL#3 x     0.0000000000
                         CL#3 y     0.0000000000


 O #1       0.0000000000            0.0000000000           -0.0924994752
 H #2       0.0000000000            0.0000000000            0.0064696619
 CL#3       0.0000000000            0.0000000000            0.0860298133


 Evaluation of 2e integral derivatives required  106.16 seconds.
  contribution to Hessian
        0.0000000000        0.0000000000        0.0000000000
        0.0000000000        0.0000000000        0.0000000000
       -0.0924994752        0.0064696619        0.0860298133
 @CHECKOUT-I, Total execution time (CPU/WALL):      106.30/      19.49 seconds.
--executable xvdint finished with status     0 in       19.59 seconds (walltime).
 --invoking executable--
/home/asmola/.local/bin/xanti
 @GETMEM-I,  Allocated    3814 MB of main memory.
 CCSD MO gammas will be sorted to Mulliken order.
 @CHECKOUT-I, Total execution time (CPU/WALL):        9.12/      15.46 seconds.
--executable xanti finished with status     0 in       15.56 seconds (walltime).
 --invoking executable--
/home/asmola/.local/bin/xbcktrn
 @GETMEM-I,  Allocated    3814 MB of main memory.
 CCSD MO gammas will be transformed to the AO basis.
 @CHECKOUT-I, Total execution time (CPU/WALL):       17.96/       3.00 seconds.
--executable xbcktrn finished with status     0 in        3.07 seconds (walltime).
 --invoking executable--
/home/asmola/.local/bin/xvdint
 @GETMEM-I,  Allocated    3814 MB of main memory.
 One- and two-electron integral derivatives are calculated
 for RHF-CC/MBPT hessians and dipole derivatives.
 Spherical gaussians are used.
  magnet F F

                     Kinetic energy integral gradient
                     --------------------------------

                         O #1 x     0.0946579379
                         O #1 y    -0.4409872252
                         H #2 x     0.2437427823
                         H #2 y     0.4637241676
                         CL#3 x    -0.3384007202
                         CL#3 y    -0.0227369424


 O #1       0.0946579379           -0.4409872252            0.0000000000
 H #2       0.2437427823            0.4637241676            0.0000000000
 CL#3      -0.3384007202           -0.0227369424            0.0000000000



                   Nuclear attraction integral gradient
                   ------------------------------------

                         O #1 x   -23.6942457440
                         O #1 y     5.8589127616
                         H #2 x    -4.2496531464
                         H #2 y    -5.9738764227
                         CL#3 x    27.9438988904
                         CL#3 y     0.1149636612


 O #1     -23.6942457440            5.8589127616            0.0000000000
 H #2      -4.2496531464           -5.9738764227            0.0000000000
 CL#3      27.9438988904            0.1149636612            0.0000000000



                      Reorthonormalization gradient
                      -----------------------------

                         O #1 x     0.0000000000
                         O #1 y     0.0000000000
                         H #2 x     0.0000000000
                         H #2 y     0.0000000000
                         CL#3 x     0.0000000000
                         CL#3 y     0.0000000000


 O #1       0.0000000000            0.0000000000            0.0000000000
 H #2       0.0000000000            0.0000000000            0.0000000000
 CL#3       0.0000000000            0.0000000000            0.0000000000



                     Kinetic energy integral Hessian
                     -------------------------------


           Symmetry 1

           O #1 x      O #1 y      H #2 x      H #2 y      CL#3 x      CL#3 y

 O #1 x    0.082493
 O #1 y    0.367635    0.152929
 H #2 x    0.281628   -0.362622   -0.282348
 H #2 y   -0.362622   -0.365077    0.373346    0.369376
 CL#3 x   -0.364121   -0.005013    0.000719   -0.010723    0.363401
 CL#3 y   -0.005013    0.212147   -0.010723   -0.004300    0.015736   -0.207848


           Symmetry 2

           O #1 z      H #2 z      CL#3 z

 O #1 z   -0.684578
 H #2 z    0.481197   -0.485040
 CL#3 z    0.203381    0.003842   -0.207223




           O #1 x      O #1 y      O #1 z      H #2 x      H #2 y      H #2 z

 O #1 x    0.082493
 O #1 y    0.367635    0.152929
 O #1 z    0.000000    0.000000   -0.684578

 H #2 x    0.281628   -0.362622    0.000000   -0.282348
 H #2 y   -0.362622   -0.365077    0.000000    0.373346    0.369376
 H #2 z    0.000000    0.000000    0.481197    0.000000    0.000000   -0.485040

 CL#3 x   -0.364121   -0.005013    0.000000    0.000719   -0.010723    0.000000
 CL#3 y   -0.005013    0.212147    0.000000   -0.010723   -0.004300    0.000000
 CL#3 z    0.000000    0.000000    0.203381    0.000000    0.000000    0.003842


           CL#3 x      CL#3 y      CL#3 z

 CL#3 x    0.363401
 CL#3 y    0.015736   -0.207848
 CL#3 z    0.000000    0.000000   -0.207223




                   Nuclear attraction integral Hessian
                   -----------------------------------


           Symmetry 1

           O #1 x      O #1 y      H #2 x      H #2 y      CL#3 x      CL#3 y

 O #1 x  -10.162670
 O #1 y   -1.884130    9.092797
 H #2 x   -4.029387    2.899376    3.541881
 H #2 y    2.876583    1.122803   -3.658674   -1.245936
 CL#3 x   14.192057   -1.015246    0.487506    0.782091  -14.679563
 CL#3 y   -0.992453  -10.215600    0.759298    0.123134    0.233155   10.092466


           Symmetry 2

           O #1 z      H #2 z      CL#3 z

 O #1 z   15.263136
 H #2 z   -5.593414    6.011623
 CL#3 z   -9.669722   -0.418209   10.087931




           O #1 x      O #1 y      O #1 z      H #2 x      H #2 y      H #2 z

 O #1 x  -10.162670
 O #1 y   -1.884130    9.092797
 O #1 z    0.000000    0.000000   15.263136

 H #2 x   -4.029387    2.899376    0.000000    3.541881
 H #2 y    2.876583    1.122803    0.000000   -3.658674   -1.245936
 H #2 z    0.000000    0.000000   -5.593414    0.000000    0.000000    6.011623

 CL#3 x   14.192057   -1.015246    0.000000    0.487506    0.782091    0.000000
 CL#3 y   -0.992453  -10.215600    0.000000    0.759298    0.123134    0.000000
 CL#3 z    0.000000    0.000000   -9.669722    0.000000    0.000000   -0.418209


           CL#3 x      CL#3 y      CL#3 z

 CL#3 x  -14.679563
 CL#3 y    0.233155   10.092466
 CL#3 z    0.000000    0.000000   10.087931




                Highest order reorthonormalization Hessian
                ------------------------------------------


           Symmetry 1

           O #1 x      O #1 y      H #2 x      H #2 y      CL#3 x      CL#3 y

 O #1 x    0.000000
 O #1 y    0.000000    0.000000
 H #2 x    0.000000    0.000000    0.000000
 H #2 y    0.000000    0.000000    0.000000    0.000000
 CL#3 x    0.000000    0.000000    0.000000    0.000000    0.000000
 CL#3 y    0.000000    0.000000    0.000000    0.000000    0.000000    0.000000


           Symmetry 2

           O #1 z      H #2 z      CL#3 z

 O #1 z    0.000000
 H #2 z    0.000000    0.000000
 CL#3 z    0.000000    0.000000    0.000000




           O #1 x      O #1 y      O #1 z      H #2 x      H #2 y      H #2 z


           CL#3 x      CL#3 y      CL#3 z




                Electronic contributions to dipole moment
                -----------------------------------------

                               au             Debye

                    x      2.72372636      6.92302306
                    y      0.24045622      0.61117885

  Conversion factor used: 1 a.u. =   2.54174691 Debye 



   Electronic contributions to static part of dipole moment derivatives
   --------------------------------------------------------------------


                     Total dipole moment derivatives
                     -------------------------------


           Symmetry 1
                              Ex             Ey

               O #1 x    -8.90349382    -0.07565752
               O #1 y    -0.29999102    -8.82408240
               H #2 x    -0.29796865     0.12078069
               H #2 y     0.38067361    -0.31374731
               CL#3 x   -16.79853753    -0.04512316
               CL#3 y    -0.08068259   -16.86217029

           Symmetry 2
                              Ez

               O #1 z    -8.44415920
               H #2 z    -0.67853816
               CL#3 z   -16.87730264



                       Ex          Ey          Ez

      O #1    x   -8.903494   -0.075658    0.000000
      O #1    y   -0.299991   -8.824082    0.000000
      O #1    z    0.000000    0.000000   -8.444159

      H #2    x   -0.297969    0.120781    0.000000
      H #2    y    0.380674   -0.313747    0.000000
      H #2    z    0.000000    0.000000   -0.678538

      CL#3    x  -16.798538   -0.045123    0.000000
      CL#3    y   -0.080683  -16.862170    0.000000
      CL#3    z    0.000000    0.000000  -16.877303

 Evaluation of 1e integral derivatives required    1.63 seconds.
 Evaluation of 2el integral derivatives

                      Two-electron integral gradient
                      ------------------------------

                         O #1 x    10.8377195285
                         O #1 y    -2.6253864942
                         H #2 x     2.2945209529
                         H #2 y     2.9021992313
                         CL#3 x   -13.1322404815
                         CL#3 y    -0.2768127371


 O #1      10.8377195285           -2.6253864942            0.0000000000
 H #2       2.2945209529            2.9021992313            0.0000000000
 CL#3     -13.1322404815           -0.2768127371            0.0000000000


 Evaluation of 2e integral derivatives required  277.48 seconds.

                            Molecular gradient
                            ------------------

                         O #1 x    -0.0103663928
                         O #1 y     0.2764683225
                         H #2 x    -0.1570909948
                         H #2 y    -0.3003622360
                         CL#3 x     0.1674573876
                         CL#3 y     0.0238939136


 O #1      -0.0103663928            0.2764683225            0.0000000000
 H #2      -0.1570909948           -0.3003622360            0.0000000000
 CL#3       0.1674573876            0.0238939136            0.0000000000


  Molecular gradient norm 0.469E+00

                            Molecular hessian
                            -----------------


           Symmetry 1

           O #1 x      O #1 y      H #2 x      H #2 y      CL#3 x      CL#3 y

 O #1 x    2.726648
 O #1 y    2.183390    8.495840
 H #2 x   -0.933502   -3.716505    1.074544
 H #2 y   -2.402016   -8.510415    2.631888    8.140102
 CL#3 x   -1.793145    0.483406   -0.247233   -0.153200    2.040378
 CL#3 y    0.218626    0.014575   -0.129269    0.076981   -0.089357   -0.091556


           Symmetry 2

           O #1 z      H #2 z      CL#3 z

 O #1 z   -1.503072
 H #2 z    1.607471   -1.711006
 CL#3 z   -0.104400    0.027195    0.077204




           O #1 x      O #1 y      O #1 z      H #2 x      H #2 y      H #2 z

 O #1 x    2.726648
 O #1 y    2.183390    8.495840
 O #1 z    0.000000    0.000000   -1.503072

 H #2 x   -0.933502   -3.716505    0.000000    1.074544
 H #2 y   -2.402016   -8.510415    0.000000    2.631888    8.140102
 H #2 z    0.000000    0.000000    1.607471    0.000000    0.000000   -1.711006

 CL#3 x   -1.793145    0.483406    0.000000   -0.247233   -0.153200    0.000000
 CL#3 y    0.218626    0.014575    0.000000   -0.129269    0.076981    0.000000
 CL#3 z    0.000000    0.000000   -0.104400    0.000000    0.000000    0.027195


           CL#3 x      CL#3 y      CL#3 z

 CL#3 x    2.040378
 CL#3 y   -0.089357   -0.091556
 CL#3 z    0.000000    0.000000    0.077204




                           Total dipole moment
                           -------------------

                               au             Debye

                    x     -0.18764653     -0.47695000
                    y     -0.60637404     -1.54124935

  Conversion factor used: 1 a.u. =   2.54174691 Debye 



                     Total dipole moment derivatives
                     -------------------------------


           Symmetry 1
                              Ex             Ey

               O #1 x    -0.44265927    -0.04803593
               O #1 y    -0.12514053    -0.15697497
               H #2 x     0.24216315     0.00502738
               H #2 y     0.07048418     0.18328154
               CL#3 x     0.20049630     0.04300846
               CL#3 y     0.05465643    -0.02630658

           Symmetry 2
                              Ez

               O #1 z    -0.33016823
               H #2 z     0.32249700
               CL#3 z     0.00767151



                       Ex          Ey          Ez

      O #1    x   -0.442659   -0.048036    0.000000
      O #1    y   -0.125141   -0.156975    0.000000
      O #1    z    0.000000    0.000000   -0.330168

      H #2    x    0.242163    0.005027    0.000000
      H #2    y    0.070484    0.183282    0.000000
      H #2    z    0.000000    0.000000    0.322497

      CL#3    x    0.200496    0.043008    0.000000
      CL#3    y    0.054656   -0.026307    0.000000
      CL#3    z    0.000000    0.000000    0.007672

  Molecular gradient does not satisfy rotational invariance condition.
   rotational invariance in yz-plane :        0.0000E+00
   rotational invariance in xz-plane :        0.0000E+00
   rotational invariance in xy-plane :        -.5600E-02
 @CHECKOUT-I, Total execution time (CPU/WALL):      279.20/      40.32 seconds.
--executable xvdint finished with status     0 in       40.43 seconds (walltime).
 --invoking executable--
/home/asmola/.local/bin/xjoda
  @GTFLGS-I, Hessian will be transformed to curvilinear coordinates.
  @GTFLGS-I, Hessian will be transformed to curvilinear coordinates.
  igrd and ihes are                      0                     1
  gradient from JOBARC 
  -0.010366392776881   0.276468322462646   0.000000000000000
  -0.157090994839512  -0.300362236043260   0.000000000000000
   0.167457387616339   0.023893913580628   0.000000000000000
 
  @PROJFCM-I, Projecting force constant matrix onto totally symmetric subspace.
  Largest difference between matrix elements of symmetrized
  and unsymmetrized FCM :     0.0000000000E+00.
  read isotopes from ZMAT file 
 
  Summary of diagonal Born-Oppenheimer correction at the correlated level
  The total diagonal Born-Oppenheimer correction (DBOC) is:      0.0083945687 a.u.
  The total diagonal Born-Oppenheimer correction (DBOC) is:       1842.394877 cm-1
  The total diagonal Born-Oppenheimer correction (DBOC) is:            22.040 kJ/mole
  hellooooooo 
  readis is  F
 
 @CHECKOUT-I, Total execution time (CPU/WALL):        0.01/       0.04 seconds.
--executable xjoda finished with status     0 in        0.08 seconds (walltime).
  The final electronic energy is      -535.770961096669453 a.u. 
  This computation required                         2727.28 seconds (walltime).
