 --invoking executable--
/home/asmola/.local/bin/xjoda


   *************************************************************************
         <<<     CCCCCC     CCCCCC   |||     CCCCCC     CCCCCC   >>>
       <<<      CCC        CCC       |||    CCC        CCC         >>>
      <<<      CCC        CCC        |||   CCC        CCC            >>>
    <<<        CCC        CCC        |||   CCC        CCC              >>>
      <<<      CCC        CCC        |||   CCC        CCC            >>>
       <<<      CCC        CCC       |||    CCC        CCC         >>>
         <<<     CCCCCC     CCCCCC   |||     CCCCCC     CCCCCC   >>>
   *************************************************************************

     ****************************************************************
     * CFOUR Coupled-Cluster techniques for Computational Chemistry *
     ****************************************************************
 

   Department of Chemistry                Institut fuer Physikalische Chemie
   University of Florida                  Universitaet Mainz
   Gainesville, FL 32611, USA             D-55099 Mainz, Germany

   Department of Chemistry                Fakultaet fuer Chemie und Biowiss.
   Johns Hopkins University               Karlsruher Institut fuer Technologie
   Baltimore, MD 21218, USA               D-76131 Karlsruhe, Germany

   Department of Chemistry                Department of Physical Chemistry
   Southern Methodist University          Eotvos Lorand University
   Dallas, TX 75275, USA                  H-1053 Budapest, Hungary

 
                       Version 2.1
 
                     vincent.theory.phys.ucl.ac.uk                     
                     Wed 29 Jan 20:52:35 GMT 2025                      
                     integer*8 version is running
 
********************************************************************************
*                          Input from ZMAT file                                *
********************************************************************************
Hypochlorous acid DBOC calculation                                              
O                                                                               
H 1 ROH                                                                         
CL 1 ROCL 2 A                                                                   
                                                                                
ROH=0.9000000000000002                                                          
ROCL=1.683                                                                      
A=107.0                                                                         
                                                                                
                                                                                
*CFOUR(CALC=CCSD,BASIS=AUG-PCVTZ,SCF_CONV=10                                    
CC_CONV=10,DBOC=ON,MEMORY=500000000)                                            
                                                                                
%isotopes                                                                       
16                                                                              
1                                                                               
37                                                                              
********************************************************************************
  @GTFLGS-I, Hessian will be transformed to curvilinear coordinates.
    -------------------------------------------------------------------
                    CFOUR Control Parameters 
    -------------------------------------------------------------------
        External           Internal           Value            Units
          Name               Name
    -------------------------------------------------------------------
       ABCDTYPE             IABCDT         STANDARD    [  0]    ***   
       ANHARMONIC           IANHAR         OFF         [  0]    ***   
       ANH_ALGORIT          IANALG         STANDARD    [  0]    ***   
       ANH_DERIVAT          IANDER         SECOND      [  1]    ***   
       ANH_MODE             ANHMOD         VIBRATION   [  0]    ***   
       ANH_STEPSIZ          ICUBST             50000          x 10-6  
       ANH_SYMMETR          IANHSM         ABELIAN     [  0]    ***   
       AO_LADDERS           IAOLAD         SINGLEPASS  [  1]    ***   
       AV_SCF               IAVSCF         OFF         [  0]    ***   
       BASIS                IBASIS         AUG-PCVTZ   [ 51]    ***   
       BOTHVECTORS          BOTHVC         OFF         [  0]    ***   
       BOX_POTENT           IPIAB          OFF         [  0]    ***   
       BREIT                IBREIT         OFF         [  0]    ***   
       BRUCK_CONV           IBRTOL          10D-  4             ***   
       BRUECKNER            IBRKNR         OFF         [  0]    ***   
       BUFFERSIZE           IBUFFS              4096            ***   
       CACHE_RECS           ICHREC             10               ***   
       CALCLEVEL            ICLLVL         CCSD        [ 10]    ***   
       CCORBOPT             ICCORB         OFF         [  0]  x 0.01  
       CC_CONV              ICCCNV          10D- 10             ***   
       CC_EXPORDER          ICCEOR              5               ***   
       CC_EXTRAPOL          ICCEXT         DIIS        [  1]    ***   
       CC_GUESS             ICCGES         MP2         [  0]    ***   
       CC_MAXCYC            ICCCYC            100              cycles 
       CC_PROGRAM           ICCPRO         VCC         [  0]    ***   
       CHARGE               ICHRGE              0               ***   
       CHOLESKY             ICHOLE         OFF         [  0]    ***   
       CIS_CONV             ICISTL              5               ***   
       COMM_SIZE            IPSIZE            ***               ***   
       CONSTANT             ICONST         OLD         [  1]    ***   
       CONTINUUM            ICONTU         NONE        [  0]    ***   
       CONTRACTION          ICNTYP         GENERAL     [  1]    ***   
       COORDINATES          ICOORD         INTERNAL    [  0]    ***   
       CPHF_CONVER          ICPHFT          10D- 16             ***   
       CPHF_MAXCYC          ICPHFC             64              cycles 
       CUBIC                ICUBIC         OFF         [  0]    ***   
       CURVILINEAR          ICURVY         ON          [  1]    ***   
       DBOC                 IDBOC          ON          [  1]    ***   
       DCT                  IDCT           OFF         [  0]    ***   
       DERIV_LEV            IDRLVL         SECOND      [  2]    ***   
       DEVMEM_SIZE          IDVMEM          50000000           MByte  
       DIAG_MRCC            IEOMST          10D-  0             ***   
       DIFF_TYPE            IDIFTY         RELAXED     [  0]    ***   
       DIRECT               IDIRCT         OFF         [  0]    ***   
       DROPMO               IDRPMO      NONE         
       ECP                  IECP           OFF         [  0]    ***   
       EIGENVECTOR          IVEC                1               ***   
       EL_ANHARM            IELANH         OFF         [  0]    ***   
       EOMFOLLOW            IEOMSR         ENERGY      [  0]    ***   
       EOMIP                IEOMIP         OFF         [  0]    ***   
       EOMLEVEL             HBARFM         SAME        [  0]    ***   
       EOM_MRCC             IMRCCE         NEW         [  1]    ***   
       EOM_NONIT            EOMNON         OFF         [  0]    ***   
       EOM_NSING            IEOMSI          10D-  0             ***   
       EOM_NSTATES          IMRCCD         DAVIDSON    [  0]    ***   
       EOM_NTRIP            IEOMTR          10D-  0             ***   
       EOM_ORDER            IEXORD         ENERGY      [  0]    ***   
       EOM_PROPSTA          IEOMST              0               ***   
       ESTATE_CONV          IEXTOL          10D-  5             ***   
       ESTATE_DIAG          IEXDIG         ITERATIVE   [  0]    ***   
       ESTATE_LOCK          IESLOC         ON          [  1]    ***   
       ESTATE_MAXC          IEXMXC             40               ***   
       ESTATE_PROP          IEXPRP         OFF         [  0]    ***   
       EVAL_HESS            IRECAL              0            # of cyc.
       EXCITATION           IEXCIT              0               ***   
       EXCITE               IEXCIT         NONE        [  0]    ***   
       EXTERN_POT           IEXPOT         OFF         [  0]    ***   
       FCGRADNEW            IFCGNW         OFF         [  0]    ***   
       FC_FIELD             IFINFC              0             x 10-6  
       FD_CALTYPE           IFDCAL         GRADONLY    [  0]    ***   
       FD_PROJECT           IFDPRJ         OFF         [  1]    ***   
       FD_STEPSIZE          IDISFD              0            10-4 bohr
       FD_USEGROUP          IFDGRP         FULL        [  0]    ***   
       FILE_RECSIZ          IFLREC              4096           words  
       FINITE_PERT          IFIPER              0             x 10-6  
       FIXGEOM              IFIXGM         OFF         [  0]    ***   
       FOCK                 IFOCK          AO          [  1]    ***   
       FREQ_ALGORI          IVIALG         STANDARD    [  0]    ***   
       FROZEN_CORE          IFROCO         OFF         [  0]    ***   
       GAMMA_ABCD           IGABCD         STORE       [  0]    ***   
       GAMMA_ABCI           IGABCI         STORE       [  0]    ***   
       GENBAS_1             IGNBS1              0               ***   
       GENBAS_2             IGNBS2              0               ***   
       GENBAS_3             IGNBS3              0               ***   
       GENBAS_4             IGNBS4              0               ***   
       GEO_CONV             ICONTL              5              H/bohr 
       GEO_MAXCYC           IOPTCY             50               ***   
       GEO_MAXSTEP          IMXSTP            300            millibohr
       GEO_METHOD           INR            SINGLE_POINT[  5]    ***   
       GIAO                 IGIAO          OFF         [  1]    ***   
       GIMIC                IGIMIC         OFF         [  0]    ***   
       GRID                 IGRID          OFF         [  0]    ***   
       GRID_ALGO            IGALGO         SERIAL      [  0]    ***   
       GUESS                IGUESS         MOREAD      [  0]    ***   
       HBAR                 IHBAR          OFF         [  0]    ***   
       HESS_TYPE            IHESTP         SCF         [  0]    ***   
       HF2_FILE             IHF2Fl         USE         [  1]    ***   
       HFSTABILITY          ISTABL         OFF         [  0]    ***   
       INCORE               INCORE         OFF         [  0]    ***   
       INPUT_MRCC           IMRCC          ON          [  1]    ***   
       INTEGRALS            INTTYP         VMOL        [  1]    ***   
       JODA_PRINT           IJPRNT              0               ***   
       KEYWORD_OUT          IDMPKW         NO          [  0]    ***   
       LINDEP_TOL           ILINDP              8               ***   
       LINEQ_CONV           IZTACN          10D-  7           cycles  
       LINEQ_EXPOR          ILMAXD              5               ***   
       LINEQ_MAXCY          ILMAXC            100               ***   
       LINEQ_TYPE           ILTYPE         DIIS        [  1]    ***   
       LOCK_ORBOCC          ILOCOC         OFF         [  0]    ***   
       MEMORY_SIZE          IMEMSZ         500000000           words  
       MEM_UNIT             IMEMU          INTEGERWORDS[  0]    ***   
       MRCC                 IMRCCC         OFF         [  0]    ***   
       MULTIPLICTY          IMULTP              1               ***   
       NACOUPLING           IVCOUP         OFF         [  0]    ***   
       NEGEVAL              IDIE           ABORT       [  0]    ***   
       NEWNORM              INEWNO         OFF         [  0]    ***   
       NON-HF               INONHF         OFF         [  0]    ***   
       NTOP_TAMP            ITOPT2             15               ***   
       NUC_MODEL            INUCMO         POINT       [  0]    ***   
       OCCUPATION           IOCCU   ESTIMATED BY SCF 
       OPEN-SHELL           IOPEN          SPIN-ORBITAL[  0]    ***   
       OPTVIB               IOPTVB         OFF         [  0]    ***   
       ORBITALS             IORBTP         STANDARD    [  0]    ***   
       PARALLEL             IPARAL         ON          [  1]    ***   
       PARA_INT             IPINTS         ON          [  1]    ***   
       PARA_PRINT           IPPRIN              0               ***   
       PERT_ORB             IPTORB         STANDARD    [  0]    ***   
       POINTS               IGRDFD              0               ***   
       PRINT                IPRNT               0               ***   
       PROPS                IPROPS         OFF         [  0]    ***   
       PROP_INTEGR          IINTYP         INTERNAL    [  0]    ***   
       PSI                  IPSI           OFF         [  0]    ***   
       QC_ALG               IQCALG         FLM         [  0]    ***   
       QC_LINALG            IQCLIN         TRIDIAG     [  2]    ***   
       QC_MAXCYC            IQCMAX          10D-100           cycles  
       QC_MAXSCFCY          IQCMSC          10D- 15           cycles  
       QC_RTRUST            IQCRTR          10D-  0           x 10-3  
       QC_SKIPSCF           IQCSKI         OFF         [  0]    ***   
       QC_START             IQCSTA          10D-  1             ***   
       QRHFGUESS            IQGUES         OFF         [  0]    ***   
       QUARTIC              IQUART         OFF         [  0]    ***   
       RAMAN_INT            IRAMIN         OFF         [  0]    ***   
       RAMAN_ORB            IRAMRE         UNRELAXED   [  0]    ***   
       RDO                  IRDOFM         ON          [  1]    ***   
       REDUCE_REPR          REDREP         Ir          [  0]    ***   
       REFERENCE            IREFNC         RHF         [  0]    ***   
       RELATIVIST           IRELAT         OFF         [  0]    ***   
       RELAX_DENS           IRDENS         ON          [  1]    ***   
       RESET_FLAGS          IRESET         OFF         [  0]    ***   
       RESTART_CC           ICCRES         OFF         [  0]    ***   
       ROT_EVEC             ROTVEC              0               ***   
       SAVE_INTS            ISVINT         OFF         [  0]    ***   
       SCALE_ON             ISTCRT              0               ***   
       SCF_CONV             ISCFCV          10D- 10             ***   
       SCF_DAMPING          IDAMP               0             x 10-3  
       SCF_EXPORDE          IRPPOR              6               ***   
       SCF_EXPSTAR          IRPPLS              8               ***   
       SCF_EXTRAPO          IRPP           ON          [  1]    ***   
       SCF_MAXCYC           ISCFCY            150              cycles 
       SCF_NOSTOP           ISCFST         OFF         [  0]    ***   
       SCF_PRINT            ISCFPR              0               ***   
       SCF_PROG             ISCFPR         SCF         [  0]    ***   
       SD_FIELD             IFINSD              0             x 10-6  
       SOPERT               IPERSO         OFF         [  0]    ***   
       SPHERICAL            IDFGHI         ON          [  1]    ***   
       SPINORBIT            ISOCAL         OFF         [  0]    ***   
       SPINROTATIO          ISRCON         OFF         [  0]    ***   
       SPIN_FLIP            ISPFLP         OFF         [  0]    ***   
       SPIN_ORBIT           ISPORB         OFF         [  0]    ***   
       SPIN_SCAL            ISCSMP         OFF         [  0]    ***   
       STEEPSCALE           ISTPSC              1000          x 10-3  
       SUBGROUP             ISUBGP         DEFAULT     [  0]    ***   
       SUBGRPAXIS           ISBXYZ         X           [  0]    ***   
       SYMMETRY             ISYM           ON          [  0]    ***   
       SYM_CHECK            ISYMCK         OVERRIDE    [  1]    ***   
       T3_EXTRAPOL          IT3EXT         OFF         [  0]    ***   
       T4_EXTRAPOL          IT4EXP         OFF         [  0]    ***   
       TAMP_SUM             IEVERY              5               ***   
       TESTSUITE            ITESTS         OFF         [  0]    ***   
       THERMOCH             ITHERM         OFF         [  0]    ***   
       TOL_CHOLESK          ITOLCH          10D-  4             ***   
       TRANGRAD             IRESRM         OFF         [  0]    ***   
       TRANS_INV            ITRAIN         IGNORE      [  1]    ***   
       TREAT_PERT           ITREAT         SIMULTANEOUS[  0]    ***   
       TRIP_ALGORI          ITRALG         NORMAL      [  0]    ***   
       UIJ_THRESHO          IUIJTH              1               ***   
       UNITS                IUNITS         ANGSTROM    [  0]    ***   
       UNOS                 IUNOS          OFF         [  0]    ***   
       UPDATE_HESS          IHUPDT         ON          [  1]    ***   
       VIBPHASE             ISETPH         STANDARD    [  0]    ***   
       VIBRATION            IVIB           ANALYTIC    [  1]    ***   
       VIB_ALGORIT          IGEALG         STANDARD    [  0]    ***   
       VNATORB              IVNORB         OFF         [  0]    ***   
       VTRAN                IVTRAN         FULL/PARTIAL[  0]    ***   
       XFIELD               IXEFLD              0             x 10-6  
       XFORM_TOL            IXFTOL          10D- 11             ***   
       YFIELD               IYEFLD              0             x 10-6  
       ZFIELD               IZEFLD              0             x 10-6  
       ZSCALE_EXP           IZEXPS         OFF         [  0]    ***   
    -------------------------------------------------------------------
   3 entries found in Z-matrix 
   Job Title : Hypochlorous acid DBOC calculation                                              
   There are  3 unique internal coordinates.
   Of these,  0 will be optimized.
   User supplied Z-matrix: 
--------------------------------------------------------------------------------
       SYMBOL    BOND      LENGTH    ANGLE     ANGLE     DIHED     ANGLE
                  TO      (ANGST)    WRT      (DEG)      WRT      (DEG)
--------------------------------------------------------------------------------
        O    
        H          1         ROH  
        CL         1         ROCL       2        A    
                  *Initial values for internal coordinates* 
                      Name             Value
                        ROH             0.9000000000
                        ROCL            1.6830000000
                        A             107.0000000000
--------------------------------------------------------------------------------
  read isotopes from ZMAT file 
   Rotational constants (in cm-1): 
          0.4900499286             0.5000390630            24.5310650477
   Rotational constants (in MHz): 
      14691.3293210024         14990.7960801491        735422.9318305510
********************************************************************************
   The full molecular point group is C s .
   The largest Abelian subgroup of the full molecular point group is C s .
   The computational point group is C s .
********************************************************************************
--------------------------------------------------------------------------------
   Analysis of internal coordinates specified by Z-matrix 
--------------------------------------------------------------------------------
   *The nuclear repulsion energy is   51.693116902593694 a.u.
   *There are   3 degrees of freedom within the tot. symm. molecular subspace.
   *Z-matrix requests optimization of   0 coordinates.
   *The optimization is constrained.
   *The following   3 parameters can have non-zero 
    derivatives within the totally symmetric subspace:
             A    [ 3]  ROH  [ 1]  ROCL [ 2]
   *The following   0 parameters are to be optimized:

   *The following coordinates must be varied in an  unconstrained optimization.
             A    [ 3]  ROH  [ 1]  ROCL [ 2]
--------------------------------------------------------------------------------


 ----------------------------------------------------------------
         Coordinates used in calculation (QCOMP) 
 ----------------------------------------------------------------
 Z-matrix   Atomic            Coordinates (in bohr)
  Symbol    Number           X              Y              Z
 ----------------------------------------------------------------
     O         8        -2.16652210     0.11079447     0.00000000
     H         1        -2.72374901    -1.49608508     0.00000000
     CL       17         1.01169986    -0.00715135     0.00000000
 ----------------------------------------------------------------
 
   Interatomic distance matrix (Angstroms) 
 
                 O             H             CL   
                [ 1]        [ 2]        [ 3]
  O    [ 1]     0.00000
  H    [ 2]     0.90000     0.00000
  CL   [ 3]     1.68300     2.12796     0.00000
 rotcon2
   Rotational constants (in cm-1): 
         24.5310650477             0.5000390630             0.4900499286
   Rotational constants (in MHz): 
     735422.9318305535         14990.7960801491         14691.3293210024
  ECPDATA file not present.   Using default ECPDATA. 
  @GTFLGS-I, Hessian will be transformed to curvilinear coordinates.
  There are  157 basis functions.
 @CHECKOUT-I, Total execution time (CPU/WALL):        0.19/       0.31 seconds.
--executable xjoda finished with status     0 in        0.36 seconds (walltime).
 --invoking executable--
/home/asmola/.local/bin/xvmol
 SERIAL VERSION OF MOLECULE STARTED
********************************************************************************
                    INPUT FROM MOL FILE
********************************************************************************
INTGRL        1    0    1    0    0    0    0    0    0                         
         *** CFOUR Program System (Release V0.1) ***                            
Hypochlorous acid DBOC calculation                                              
    3    1 Z          0.10E-08              0    0                              
   9999.00      3.00                                                            
          8.00000000    1    4    1    1    1    1                              
O #1  -2.166522104336915   0.110794469003642   0.000000000000000                
   13    7                                                                      
   15330.0000000000       5.080000000000000E-004 -1.150000000000000E-004        
  0.000000000000000E+000  0.000000000000000E+000  0.000000000000000E+000        
  0.000000000000000E+000  0.000000000000000E+000                                
   2299.00000000000       3.929000000000000E-003 -8.950000000000000E-004        
  0.000000000000000E+000  0.000000000000000E+000  0.000000000000000E+000        
  0.000000000000000E+000  0.000000000000000E+000                                
   522.400000000000       2.024300000000000E-002 -4.636000000000000E-003        
  0.000000000000000E+000  0.000000000000000E+000  0.000000000000000E+000        
  0.000000000000000E+000  0.000000000000000E+000                                
   147.300000000000       7.918100000000000E-002 -1.872400000000000E-002        
  0.000000000000000E+000  0.000000000000000E+000  0.000000000000000E+000        
  0.000000000000000E+000  0.000000000000000E+000                                
   47.5500000000000       0.230687000000000      -5.846300000000000E-002        
  0.000000000000000E+000  0.000000000000000E+000  0.000000000000000E+000        
  0.000000000000000E+000  0.000000000000000E+000                                
   16.7600000000000       0.433118000000000      -0.136463000000000             
  0.000000000000000E+000  0.000000000000000E+000  0.000000000000000E+000        
  0.000000000000000E+000  0.000000000000000E+000                                
   6.20700000000000       0.350260000000000      -0.175740000000000             
  0.000000000000000E+000  0.000000000000000E+000  0.000000000000000E+000        
  0.000000000000000E+000  0.000000000000000E+000                                
   1.75200000000000       4.272800000000000E-002  0.160934000000000             
   1.00000000000000       0.000000000000000E+000  0.000000000000000E+000        
  0.000000000000000E+000  0.000000000000000E+000                                
  0.688200000000000      -8.154000000000000E-003  0.603418000000000             
  0.000000000000000E+000  0.000000000000000E+000  0.000000000000000E+000        
  0.000000000000000E+000  0.000000000000000E+000                                
  0.238400000000000       2.381000000000000E-003  0.378765000000000             
  0.000000000000000E+000   1.00000000000000       0.000000000000000E+000        
  0.000000000000000E+000  0.000000000000000E+000                                
   7.84500000000000       0.000000000000000E+000  0.000000000000000E+000        
  0.000000000000000E+000  0.000000000000000E+000   1.00000000000000             
  0.000000000000000E+000  0.000000000000000E+000                                
   21.0320000000000       0.000000000000000E+000  0.000000000000000E+000        
  0.000000000000000E+000  0.000000000000000E+000  0.000000000000000E+000        
   1.00000000000000       0.000000000000000E+000                                
  7.376000000000001E-002  0.000000000000000E+000  0.000000000000000E+000        
  0.000000000000000E+000  0.000000000000000E+000  0.000000000000000E+000        
  0.000000000000000E+000   1.00000000000000                                     
    8    6                                                                      
   34.4600000000000       1.592800000000000E-002  0.000000000000000E+000        
  0.000000000000000E+000  0.000000000000000E+000  0.000000000000000E+000        
  0.000000000000000E+000                                                        
   7.74900000000000       9.974000000000000E-002  0.000000000000000E+000        
  0.000000000000000E+000  0.000000000000000E+000  0.000000000000000E+000        
  0.000000000000000E+000                                                        
   2.28000000000000       0.310492000000000       0.000000000000000E+000        
  0.000000000000000E+000  0.000000000000000E+000  0.000000000000000E+000        
  0.000000000000000E+000                                                        
  0.715600000000000       0.491026000000000        1.00000000000000             
  0.000000000000000E+000  0.000000000000000E+000  0.000000000000000E+000        
  0.000000000000000E+000                                                        
  0.214000000000000       0.336337000000000       0.000000000000000E+000        
   1.00000000000000       0.000000000000000E+000  0.000000000000000E+000        
  0.000000000000000E+000                                                        
   15.1590000000000       0.000000000000000E+000  0.000000000000000E+000        
  0.000000000000000E+000   1.00000000000000       0.000000000000000E+000        
  0.000000000000000E+000                                                        
   57.4370000000000       0.000000000000000E+000  0.000000000000000E+000        
  0.000000000000000E+000  0.000000000000000E+000   1.00000000000000             
  0.000000000000000E+000                                                        
  5.974000000000000E-002  0.000000000000000E+000  0.000000000000000E+000        
  0.000000000000000E+000  0.000000000000000E+000  0.000000000000000E+000        
   1.00000000000000                                                             
    4    4                                                                      
   2.31400000000000        1.00000000000000       0.000000000000000E+000        
  0.000000000000000E+000  0.000000000000000E+000                                
  0.645000000000000       0.000000000000000E+000   1.00000000000000             
  0.000000000000000E+000  0.000000000000000E+000                                
   15.8580000000000       0.000000000000000E+000  0.000000000000000E+000        
   1.00000000000000       0.000000000000000E+000                                
  0.214000000000000       0.000000000000000E+000  0.000000000000000E+000        
  0.000000000000000E+000   1.00000000000000                                     
    2    2                                                                      
   1.42800000000000        1.00000000000000       0.000000000000000E+000        
  0.500000000000000       0.000000000000000E+000   1.00000000000000             
          1.00000000    1    3    1    1    1                                   
H #2  -2.723749013849817  -1.496085082448674   0.000000000000000                
    6    4                                                                      
   33.8700000000000       6.068000000000000E-003  0.000000000000000E+000        
  0.000000000000000E+000  0.000000000000000E+000                                
   5.09500000000000       4.530800000000000E-002  0.000000000000000E+000        
  0.000000000000000E+000  0.000000000000000E+000                                
   1.15900000000000       0.202822000000000       0.000000000000000E+000        
  0.000000000000000E+000  0.000000000000000E+000                                
  0.325800000000000       0.503903000000000        1.00000000000000             
  0.000000000000000E+000  0.000000000000000E+000                                
  0.102700000000000       0.383421000000000       0.000000000000000E+000        
   1.00000000000000       0.000000000000000E+000                                
  2.526000000000000E-002  0.000000000000000E+000  0.000000000000000E+000        
  0.000000000000000E+000   1.00000000000000                                     
    3    3                                                                      
   1.40700000000000        1.00000000000000       0.000000000000000E+000        
  0.000000000000000E+000                                                        
  0.388000000000000       0.000000000000000E+000   1.00000000000000             
  0.000000000000000E+000                                                        
  0.102000000000000       0.000000000000000E+000  0.000000000000000E+000        
   1.00000000000000                                                             
    2    2                                                                      
   1.05700000000000        1.00000000000000       0.000000000000000E+000        
  0.247000000000000       0.000000000000000E+000   1.00000000000000             
         17.00000000    1    4    1    1    1    1                              
CL#3   1.011699861154136  -0.007151349050641   0.000000000000000                
   18    8                                                                      
   456100.000000000       4.930000000000000E-005 -1.380000000000000E-005        
  4.200000000000000E-006  0.000000000000000E+000  0.000000000000000E+000        
  0.000000000000000E+000  0.000000000000000E+000  0.000000000000000E+000        
   68330.0000000000       3.830000000000000E-004 -1.073000000000000E-004        
  3.240000000000000E-005  0.000000000000000E+000  0.000000000000000E+000        
  0.000000000000000E+000  0.000000000000000E+000  0.000000000000000E+000        
   15550.0000000000       2.008500000000000E-003 -5.651000000000000E-004        
  1.711000000000000E-004  0.000000000000000E+000  0.000000000000000E+000        
  0.000000000000000E+000  0.000000000000000E+000  0.000000000000000E+000        
   4405.00000000000       8.385600000000000E-003 -2.361400000000000E-003        
  7.142000000000000E-004  0.000000000000000E+000  0.000000000000000E+000        
  0.000000000000000E+000  0.000000000000000E+000  0.000000000000000E+000        
   1439.00000000000       2.947030000000000E-002 -8.458900000000000E-003        
  2.567000000000000E-003  0.000000000000000E+000  0.000000000000000E+000        
  0.000000000000000E+000  0.000000000000000E+000  0.000000000000000E+000        
   520.400000000000       8.783249999999999E-002 -2.596380000000000E-002        
  7.885500000000000E-003  0.000000000000000E+000  0.000000000000000E+000        
  0.000000000000000E+000  0.000000000000000E+000  0.000000000000000E+000        
   203.100000000000       0.211473000000000      -6.863619999999999E-002        
  2.108670000000000E-002  0.000000000000000E+000  0.000000000000000E+000        
  0.000000000000000E+000  0.000000000000000E+000  0.000000000000000E+000        
   83.9600000000000       0.365364000000000      -0.141874000000000             
  4.422640000000000E-002  0.000000000000000E+000  0.000000000000000E+000        
  0.000000000000000E+000  0.000000000000000E+000  0.000000000000000E+000        
   36.2000000000000       0.340884000000000      -0.199319000000000             
  6.516700000000000E-002  0.000000000000000E+000  0.000000000000000E+000        
  0.000000000000000E+000  0.000000000000000E+000  0.000000000000000E+000        
   15.8300000000000       0.102133000000000      -1.956620000000000E-002        
  6.030100000000000E-003  0.000000000000000E+000  0.000000000000000E+000        
  0.000000000000000E+000  0.000000000000000E+000  0.000000000000000E+000        
   6.33400000000000       3.116800000000000E-003  0.499741000000000             
 -0.206495000000000       0.000000000000000E+000  0.000000000000000E+000        
  0.000000000000000E+000  0.000000000000000E+000  0.000000000000000E+000        
   2.69400000000000       1.057500000000000E-003  0.563736000000000             
 -0.405871000000000       0.000000000000000E+000  0.000000000000000E+000        
  0.000000000000000E+000  0.000000000000000E+000  0.000000000000000E+000        
  0.976800000000000      -3.780000000000000E-004  7.903250000000001E-002        
  7.595580000000000E-002   1.00000000000000       0.000000000000000E+000        
  0.000000000000000E+000  0.000000000000000E+000  0.000000000000000E+000        
  0.431300000000000       1.561000000000000E-004 -8.350900000000000E-003        
  0.725661000000000       0.000000000000000E+000  0.000000000000000E+000        
  0.000000000000000E+000  0.000000000000000E+000  0.000000000000000E+000        
  0.162500000000000      -5.140000000000000E-005  2.324600000000000E-003        
  0.394423000000000       0.000000000000000E+000   1.00000000000000             
  0.000000000000000E+000  0.000000000000000E+000  0.000000000000000E+000        
   15.0640000000000       0.000000000000000E+000  0.000000000000000E+000        
  0.000000000000000E+000  0.000000000000000E+000  0.000000000000000E+000        
   1.00000000000000       0.000000000000000E+000  0.000000000000000E+000        
   2.87400000000000       0.000000000000000E+000  0.000000000000000E+000        
  0.000000000000000E+000  0.000000000000000E+000  0.000000000000000E+000        
  0.000000000000000E+000   1.00000000000000       0.000000000000000E+000        
  5.910000000000000E-002  0.000000000000000E+000  0.000000000000000E+000        
  0.000000000000000E+000  0.000000000000000E+000  0.000000000000000E+000        
  0.000000000000000E+000  0.000000000000000E+000   1.00000000000000             
   12    7                                                                      
   663.300000000000       2.404500000000000E-003 -6.521000000000000E-004        
  0.000000000000000E+000  0.000000000000000E+000  0.000000000000000E+000        
  0.000000000000000E+000  0.000000000000000E+000                                
   156.800000000000       1.921480000000000E-002 -5.194500000000000E-003        
  0.000000000000000E+000  0.000000000000000E+000  0.000000000000000E+000        
  0.000000000000000E+000  0.000000000000000E+000                                
   49.9800000000000       8.850970000000000E-002 -2.469380000000000E-002        
  0.000000000000000E+000  0.000000000000000E+000  0.000000000000000E+000        
  0.000000000000000E+000  0.000000000000000E+000                                
   18.4200000000000       0.256020000000000      -7.281670000000000E-002        
  0.000000000000000E+000  0.000000000000000E+000  0.000000000000000E+000        
  0.000000000000000E+000  0.000000000000000E+000                                
   7.24000000000000       0.436927000000000      -0.134030000000000             
  0.000000000000000E+000  0.000000000000000E+000  0.000000000000000E+000        
  0.000000000000000E+000  0.000000000000000E+000                                
   2.92200000000000       0.350334000000000      -9.477420000000000E-002        
  0.000000000000000E+000  0.000000000000000E+000  0.000000000000000E+000        
  0.000000000000000E+000  0.000000000000000E+000                                
   1.02200000000000       5.854950000000000E-002  0.262289000000000             
   1.00000000000000       0.000000000000000E+000  0.000000000000000E+000        
  0.000000000000000E+000  0.000000000000000E+000                                
  0.381800000000000      -4.584200000000000E-003  0.564667000000000             
  0.000000000000000E+000  0.000000000000000E+000  0.000000000000000E+000        
  0.000000000000000E+000  0.000000000000000E+000                                
  0.130100000000000       2.269700000000000E-003  0.341250000000000             
  0.000000000000000E+000   1.00000000000000       0.000000000000000E+000        
  0.000000000000000E+000  0.000000000000000E+000                                
   9.48000000000000       0.000000000000000E+000  0.000000000000000E+000        
  0.000000000000000E+000  0.000000000000000E+000   1.00000000000000             
  0.000000000000000E+000  0.000000000000000E+000                                
   3.66800000000000       0.000000000000000E+000  0.000000000000000E+000        
  0.000000000000000E+000  0.000000000000000E+000  0.000000000000000E+000        
   1.00000000000000       0.000000000000000E+000                                
  4.190000000000000E-002  0.000000000000000E+000  0.000000000000000E+000        
  0.000000000000000E+000  0.000000000000000E+000  0.000000000000000E+000        
  0.000000000000000E+000   1.00000000000000                                     
    5    5                                                                      
   1.04600000000000        1.00000000000000       0.000000000000000E+000        
  0.000000000000000E+000  0.000000000000000E+000  0.000000000000000E+000        
  0.344000000000000       0.000000000000000E+000   1.00000000000000             
  0.000000000000000E+000  0.000000000000000E+000  0.000000000000000E+000        
   17.9570000000000       0.000000000000000E+000  0.000000000000000E+000        
   1.00000000000000       0.000000000000000E+000  0.000000000000000E+000        
   5.76000000000000       0.000000000000000E+000  0.000000000000000E+000        
  0.000000000000000E+000   1.00000000000000       0.000000000000000E+000        
  0.135000000000000       0.000000000000000E+000  0.000000000000000E+000        
  0.000000000000000E+000  0.000000000000000E+000   1.00000000000000             
    3    3                                                                      
  0.706000000000000        1.00000000000000       0.000000000000000E+000        
  0.000000000000000E+000                                                        
   11.7790000000000       0.000000000000000E+000   1.00000000000000             
  0.000000000000000E+000                                                        
  0.312000000000000       0.000000000000000E+000  0.000000000000000E+000        
   1.00000000000000                                                             
FINISH                                                                          
 
********************************************************************************
 ONE- AND TWO-ELECTRON INTEGRALS OVER SYMMETRY-ADAPTED AOS ARE CALCULATED.

  SPHERICAL HARMONICS ARE USED.
  
  INTEGRALS LESS THAN  0.10E-13 ARE NEGLECTED.

  NUCLEAR REPULSION ENERGY :   51.6931169026 A.U.
  @MOLECU-I, ONE ELECTRON INTEGRALS (CPU/WALL):        0.04/       0.05 SECONDS.
  @TWOEL-I,   14246646 INTEGRALS OF SYMMETRY TYPE  I I I I
  @TWOEL-I,   13487669 INTEGRALS OF SYMMETRY TYPE  I J I J
  @TWOEL-I,    6954790 INTEGRALS OF SYMMETRY TYPE  I I J J
  @TWOEL-I, TOTAL NUMBER OF 2-E INTEGRALS   34689105.
  @MOLECU-I, TWO ELECTRON INTEGRALS (CPU/WALL):       55.32/       8.99 SECONDS.
 @CHECKOUT-I, Total execution time (CPU/WALL):       55.38/       9.06 seconds.

Running with 14 threads/proc

--executable xvmol finished with status     0 in        9.10 seconds (walltime).
 --invoking executable--
/home/asmola/.local/bin/xvmol2ja
 @GETMEM-I,  Allocated    3814 MB of main memory.
 @CHECKOUT-I, Total execution time (CPU/WALL):        0.10/       0.04 seconds.
--executable xvmol2ja finished with status     0 in        0.06 seconds (walltime).
 --invoking executable--
/home/asmola/.local/bin/xvscf
  There are  157 functions in the AO basis.

  There are 2 irreducible representations.

       Irrep        # of functions
         1                104
         2                 53


  Parameters for SCF calculation: 
        SCF reference function:  RHF  
  Maximum number of iterations:  150
     Full symmetry point group: C s 
     Computational point group: C s 
        Initial density matrix: MOREAD                 
     SCF convergence tolerance: 10**(-10)
  DIIS convergence acceleration:  ON
          Latest start for DIIS:   8
                     DIIS order:   6

  Memory information:    1209746 words required.
  Fock matrices are constructed from AO integral file.
 @GETMEM-I,  Allocated       9 MB of main memory.
  Initialization and symmetry analysis required      0.001 seconds.

  @INITGES-I, Occupancies from core Hamiltonian:

          Alpha population by irrep:  10    3
           Beta population by irrep:  10    3


 total no. of electrons in initial guess :  0.000000000000000E+000
  --------------------------------------------------------------------
  Iteration         Total Energy            Largest Density Difference
  --------------------------------------------------------------------
       0            51.693116902593680              0.0000000000D+00
   current occupation vector 
    10  3
    10  3
       1          -364.989863387561172              0.1326005192D+02
   current occupation vector 
    10  3
    10  3
       2          -337.895206746672272              0.1324653606D+02
   current occupation vector 
    10  3
    10  3
       3          -420.841296359791215              0.1075177382D+02
   current occupation vector 
    10  3
    10  3
       4          -335.528598475516389              0.1075298554D+02
   current occupation vector 
    10  3
    10  3
       5          -420.561564712139614              0.1067984119D+02
   current occupation vector 
    10  3
    10  3
       6          -335.390375538531885              0.1067964420D+02
   current occupation vector 
    10  3
    10  3
       7          -420.537651122010516              0.1067318150D+02
   current occupation vector 
    10  3
    10  3
       8          -335.378869252366769              0.1067316103D+02
   current occupation vector 
    10  3
    10  3
       9          -446.831765267699609              0.8248226653D+01
   current occupation vector 
    10  3
    10  3
      10          -465.809171961960431              0.2088195493D+01
   current occupation vector 
    10  3
    10  3
      11          -476.075224889620188              0.1288569214D+01
   current occupation vector 
    10  3
    10  3
      12          -480.870553905075155              0.5848791880D+00
   current occupation vector 
    10  3
    10  3
      13          -481.260659738743982              0.5108540684D-01
   current occupation vector 
    10  3
    10  3
      14          -497.366246212458066              0.1657441890D+01
   current occupation vector 
    10  3
    10  3
      15          -507.678882734523484              0.7449812881D+01
   current occupation vector 
    10  3
    10  3
      16          -525.882836085782401              0.7446013079D+01
   current occupation vector 
    11  2
    11  2
      17          -531.473885908807347              0.6373355459D+01
   current occupation vector 
    10  3
    10  3
      18          -534.001698303589023              0.1306822449D+01
   current occupation vector 
    10  3
    10  3
      19          -534.822133511954689              0.7286763461D+00
   current occupation vector 
    10  3
    10  3
      20          -534.918123914101557              0.3268349273D+00
   current occupation vector 
    10  3
    10  3
      21          -534.921544918339805              0.5034820000D-01
   current occupation vector 
    10  3
    10  3
      22          -534.922428579293637              0.3363409160D-01
   current occupation vector 
    10  3
    10  3
      23          -534.922526437099350              0.1140274008D-01
   current occupation vector 
    10  3
    10  3
      24          -534.922546104283242              0.6259576853D-02
   current occupation vector 
    10  3
    10  3
      25          -534.922548420896305              0.1886706814D-02
   current occupation vector 
    10  3
    10  3
      26          -534.922548718318581              0.7923464378D-03
   current occupation vector 
    10  3
    10  3
      27          -534.922548763072996              0.3019126397D-03
   current occupation vector 
    10  3
    10  3
      28          -534.922548768296451              0.1455068537D-03
   current occupation vector 
    10  3
    10  3
      29          -534.922548768415709              0.1284020757D-04
   current occupation vector 
    10  3
    10  3
      30          -534.922548768426736              0.6911435571D-05
   current occupation vector 
    10  3
    10  3
      31          -534.922548768429806              0.1144431339D-05
   current occupation vector 
    10  3
    10  3
      32          -534.922548768432307              0.5855080111D-06
   current occupation vector 
    10  3
    10  3
      33          -534.922548768433444              0.2242503675D-06
   current occupation vector 
    10  3
    10  3
      34          -534.922548768436513              0.1149720055D-06
   current occupation vector 
    10  3
    10  3
      35          -534.922548768432875              0.3313769492D-07
   current occupation vector 
    10  3
    10  3
      36          -534.922548768434126              0.3904577328D-08
   current occupation vector 
    10  3
    10  3
      37          -534.922548768434240              0.2000334565D-08
   current occupation vector 
    10  3
    10  3
      38          -534.922548768433558              0.2942823762D-09
   current occupation vector 
    10  3
    10  3
      39          -534.922548768436286              0.1698365060D-09
   current occupation vector 
    10  3
    10  3

  SCF has converged.

 Density matrix saved to file den.dat
 total electron number:   26.0000000000000     
     E(SCF)=      -534.922548768432421              0.6027067734D-10

  Eigenvector printing suppressed.

 @PUTMOS-I, Writing converged MOs to NEWMOS. 
 @PUTMOS-I, Symmetry   1 Full Blocks 26 Partial Blocksize   0
 @PUTMOS-I, Symmetry   2 Full Blocks 13 Partial Blocksize   1
 @PUTFOCK-I, Writing converged Fock matrix to NEWFOCK. 
 @PUTFOCK-I, Symmetry   1 Full Blocks 26 Partial Blocksize   0
 @PUTFOCK-I, Symmetry   2 Full Blocks 13 Partial Blocksize   1


 
  ORBITAL EIGENVALUES (ALPHA)  (1H = 27.2113834 eV)

       MO #        E(hartree)               E(eV)           FULLSYM    COMPSYM
       ----   --------------------   --------------------   -------   ---------
    1     1        -104.8934512450       -2854.2959179762     A'        A'  (1)
    2     2         -20.6346459617        -561.4972625871     A'        A'  (1)
    3     3         -10.6132803801        -288.8020415540     A'        A'  (1)
    4     4          -8.0800092222        -219.8682288215     A'        A'  (1)
    5     5          -8.0776497280        -219.8040237188     A'        A'  (1)
    6   105          -8.0774986547        -219.7999128056     A''       A'' (2)
    7     6          -1.4294798038         -38.8981230047     A'        A'  (1)
    8     7          -1.0707448033         -29.1364473670     A'        A'  (1)
    9     8          -0.7389079754         -20.1067082152     A'        A'  (1)
   10   106          -0.6165610737         -16.7774797655     A''       A'' (2)
   11     9          -0.6079306390         -16.5426336984     A'        A'  (1)
   12    10          -0.4703683724         -12.7993741215     A'        A'  (1)
   13   107          -0.4451421571         -12.1129339040     A''       A'' (2)
  +++++++++++++++++++++++++++++++++++++++++++++++++++++++++++++++++++++++++++++
   14    11           0.0296437397           0.8066471671     A'        A'  (1)
   15    12           0.0620347885           1.6880524131     A'        A'  (1)
   16    13           0.1098207800           2.9883753509     A'        A'  (1)
   17   108           0.1156315094           3.1464933362     A''       A'' (2)
   18    14           0.1406197014           3.8264566096     A'        A'  (1)
   19    15           0.1582642443           4.3065890304     A'        A'  (1)
   20    16           0.1721062817           4.6832500168     A'        A'  (1)
   21    17           0.1792827843           4.8785325800     A'        A'  (1)
   22   109           0.1866311503           5.0784917850     A''       A'' (2)
   23    18           0.2478358733           6.7439569681     A'        A'  (1)
   24   110           0.2617401275           7.1223109608     A''       A'' (2)
   25    19           0.3099177440           8.4332905539     A'        A'  (1)
   26    20           0.3199141839           8.7053075119     A'        A'  (1)
   27   111           0.3841715355          10.4538389426     A''       A'' (2)
   28    21           0.3918105177          10.6617062183     A'        A'  (1)
   29   112           0.4191597515          11.4059167028     A''       A'' (2)
   30    22           0.4380746309          11.9206167404     A'        A'  (1)
   31    23           0.4440480448          12.0831615946     A'        A'  (1)
   32    24           0.5005769743          13.6213919689     A'        A'  (1)
   33    25           0.6110651104          16.6279270026     A'        A'  (1)
   34   113           0.6119522626          16.6520676404     A''       A'' (2)
   35    26           0.6788565523          18.4726259191     A'        A'  (1)
   36    27           0.7063181925          19.2198951393     A'        A'  (1)
   37   114           0.7133366135          19.4108760826     A''       A'' (2)
   38    28           0.7177660208          19.5314063834     A'        A'  (1)
   39   115           0.7674190514          20.8825340367     A''       A'' (2)
   40    29           0.7823173540          21.2879374607     A'        A'  (1)
   41    30           0.8715977776          23.7173812973     A'        A'  (1)
   42   116           0.8837029144          24.0467788155     A''       A'' (2)
   43    31           0.8933218657          24.3085237882     A'        A'  (1)
   44   117           0.9031744986          24.5766275574     A''       A'' (2)
   45    32           0.9157367109          24.9184627348     A'        A'  (1)
   46   118           0.9202404833          25.0410166111     A''       A'' (2)
   47    33           0.9356704349          25.4608869406     A'        A'  (1)
   48    34           0.9582440198          26.0751454145     A'        A'  (1)
   49    35           1.0047124289          27.3396151095     A'        A'  (1)
   50   119           1.0146242340          27.6093290378     A''       A'' (2)
   51    36           1.0322778317          28.0897078538     A'        A'  (1)
   52    37           1.1170148251          30.3955186695     A'        A'  (1)
   53   120           1.1221738960          30.5359041258     A''       A'' (2)
   54   121           1.2271629415          33.3928012958     A''       A'' (2)
   55    38           1.2358561437          33.6293553531     A'        A'  (1)
   56    39           1.2878719458          35.0447772872     A'        A'  (1)
   57    40           1.3501904179          36.7405491241     A'        A'  (1)
   58    41           1.3833006189          37.6415234982     A'        A'  (1)
   59   122           1.4168256893          38.5537870428     A''       A'' (2)
   60   123           1.5134075814          41.1819139375     A''       A'' (2)
   61   124           1.5663798463          42.6233625489     A''       A'' (2)
   62    42           1.5691412107          42.6985030944     A'        A'  (1)
   63    43           1.6801814369          45.7200612619     A'        A'  (1)
   64    44           1.7077764876          46.4709607664     A'        A'  (1)
   65    45           1.8158127666          49.4107773737     A'        A'  (1)
   66    46           2.0719463621          56.3805268446     A'        A'  (1)
   67   125           2.1723366059          59.1122842559     A''       A'' (2)
   68    47           2.2353820562          60.8278381761     A'        A'  (1)
   69   126           2.2677469518          61.7085317583     A''       A'' (2)
   70    48           2.2952250822          62.4562497012     A'        A'  (1)
   71   127           2.3279028804          63.3454577978     A''       A'' (2)
   72    49           2.3294079750          63.3864135027     A'        A'  (1)
   73    50           2.3568685717          64.1336543269     A'        A'  (1)
   74    51           2.4254883424          66.0008932159     A'        A'  (1)
   75   128           2.4530146842          66.7499230567     A''       A'' (2)
   76    52           2.4626049785          67.0108882330     A'        A'  (1)
   77   129           2.4763224202          67.3841587981     A''       A'' (2)
   78    53           2.4880702646          67.7038338956     A'        A'  (1)
   79   130           2.4923996856          67.8216434297     A''       A'' (2)
   80    54           2.5172061258          68.4966609855     A'        A'  (1)
   81   131           2.7430408867          74.6419372502     A''       A'' (2)
   82    55           2.7985238229          76.1517047000     A'        A'  (1)
   83   132           2.8956854185          78.7956061273     A''       A'' (2)
   84    56           2.9442963645          80.1183772179     A'        A'  (1)
   85    57           2.9707855745          80.8391852671     A'        A'  (1)
   86   133           3.0540174713          83.1040403226     A''       A'' (2)
   87    58           3.0657033303          83.4220287124     A'        A'  (1)
   88    59           3.1259985239          85.0627443413     A'        A'  (1)
   89   134           3.1362568939          85.3418887817     A''       A'' (2)
   90    60           3.2670623618          88.9012865178     A'        A'  (1)
   91    61           3.3289121553          90.5843049623     A'        A'  (1)
   92   135           3.3706652861          91.7204654138     A''       A'' (2)
   93    62           3.4805001806          94.7092248374     A'        A'  (1)
   94    63           3.7984748321         103.3617549907     A'        A'  (1)
   95    64           3.8511121600         104.7940895018     A'        A'  (1)
   96   136           4.1347689860         112.5127841497     A''       A'' (2)
   97   137           4.1986373178         114.2507298126     A''       A'' (2)
   98   138           4.3609825894         118.6683692405     A''       A'' (2)
   99    65           4.4350448612         120.6837061136     A'        A'  (1)
  100    66           4.5657799062         124.2411875478     A'        A'  (1)
  101    67           4.7148476949         128.2975282979     A'        A'  (1)
  102    68           4.9203414144         133.8892966865     A'        A'  (1)
  103    69           5.2866838419         143.8579809368     A'        A'  (1)
  104   139           5.4345928150         147.8827887121     A''       A'' (2)
  105    70           5.6251429857         153.0679224632     A'        A'  (1)
  106    71           5.8921483140         160.3335068208     A'        A'  (1)
  107    72           6.2710622969         170.6442804850     A'        A'  (1)
  108   140           6.6604283920         181.2394705817     A''       A'' (2)
  109    73           6.6973598777         182.2444274002     A'        A'  (1)
  110   141           6.7398669399         183.4011033677     A''       A'' (2)
  111    74           6.7915748750         184.8081478137     A'        A'  (1)
  112   142           7.1273320512         193.9445650642     A''       A'' (2)
  113   143           7.2178728245         196.4083047606     A''       A'' (2)
  114    75           7.2258145262         196.6244094497     A'        A'  (1)
  115   144           7.4018726196         201.4151937309     A''       A'' (2)
  116    76           7.4122718722         201.6981717782     A'        A'  (1)
  117    77           7.6588076219         208.4067505871     A'        A'  (1)
  118    78           7.9174065574         215.4435853666     A'        A'  (1)
  119    79           9.0493834966         246.2462438593     A'        A'  (1)
  120   145          10.3474190054         281.5675857575     A''       A'' (2)
  121    80          10.3474431816         281.5682436253     A'        A'  (1)
  122   146          10.3853032912         282.5984695830     A''       A'' (2)
  123    81          10.4428921174         284.1655412116     A'        A'  (1)
  124    82          10.6276347057         289.1926426114     A'        A'  (1)
  125   147          12.6775207657         344.9728781165     A''       A'' (2)
  126    83          12.7328621066         346.4787925623     A'        A'  (1)
  127    84          13.2276155209         359.9417174071     A'        A'  (1)
  128    85          18.2758363945         497.3107910857     A'        A'  (1)
  129   148          26.2533275677         714.3893619716     A''       A'' (2)
  130    86          26.6521385957         725.2415617567     A'        A'  (1)
  131    87          27.1975131521         740.0819579085     A'        A'  (1)
  132    88          29.1618816658         793.5351426738     A'        A'  (1)
  133   149          36.8927370640        1003.9024129239     A''       A'' (2)
  134    89          36.8930685016        1003.9114317988     A'        A'  (1)
  135   150          36.8931406658        1003.9133954881     A''       A'' (2)
  136    90          36.8979414425        1004.0440312630     A'        A'  (1)
  137   151          36.9018752390        1004.1510753069     A''       A'' (2)
  138    91          36.9020686301        1004.1563377462     A'        A'  (1)
  139    92          36.9059790224        1004.2627449302     A'        A'  (1)
  140   152          43.9203818478        1195.1343495348     A''       A'' (2)
  141    93          43.9524230537        1196.0062350720     A'        A'  (1)
  142   153          43.9759026359        1196.6451469863     A''       A'' (2)
  143    94          44.1161739850        1200.4621244468     A'        A'  (1)
  144    95          44.3909044182        1207.9379195955     A'        A'  (1)
  145   154          46.4802553212        1264.7920480752    E          A'' (2)
  146    96          46.4802578916        1264.7921180200    E          A'  (1)
  147   155          46.5047963697        1265.4598439561     A''       A'' (2)
  148    97          46.5350326543        1266.2826150867     A'        A'  (1)
  149    98          46.6234909756        1268.6896883831     A'        A'  (1)
  150   156          55.0170948266        1497.0912608818     A''       A'' (2)
  151    99          55.0782762077        1498.7560908982     A'        A'  (1)
  152   100          55.6545210532        1514.4365103231     A'        A'  (1)
  153   101         103.8700361483        2826.4473774041     A'        A'  (1)
  154   157         138.3731679035        3765.3253240957     A''       A'' (2)
  155   102         138.6565262394        3773.0358964117     A'        A'  (1)
  156   103         139.1006164691        3785.1202059157     A'        A'  (1)
  157   104         150.0242516840        4082.3674318708     A'        A'  (1)


  VSCF finished.

 @CHECKOUT-I, Total execution time (CPU/WALL):       65.94/      13.16 seconds.
--executable xvscf finished with status     0 in       13.19 seconds (walltime).
 --invoking executable--
/home/asmola/.local/bin/xvtran
 @GETMEM-I,  Allocated    3814 MB of main memory.
  Full RHF integral transformation
  Transformation of IIII integrals :
  1 pass through the AO integral file was required.
    14246646 AO integrals were read.
    15933126 MO integrals were written to HF2.
  Transformation of IIJJ integrals :
  1 pass through the AO integral file was required.
     6954790 AO integrals were read.
     7813260 MO integrals were written to HF2.
  Transformation of IJIJ integrals :
  1 pass through the AO integral file was required.
    13487669 AO integrals were read.
    15193828 MO integrals were written to HF2.
  Summary of active molecular orbitals: 
------------------------------------------------------------------------
 
  Index      Eigenvalue    Symmetry    Index      Eigenvalue    Symmetry
------------------------------------------------------------------------
     1      -104.8934512        1        80         7.6588076        1
     2       -20.6346460        1        81         7.9174066        1
     3       -10.6132804        1        82         9.0493835        1
     4        -8.0800092        1        83        10.3474432        1
     5        -8.0776497        1        84        10.4428921        1
     6        -1.4294798        1        85        10.6276347        1
     7        -1.0707448        1        86        12.7328621        1
     8        -0.7389080        1        87        13.2276155        1
     9        -0.6079306        1        88        18.2758364        1
    10        -0.4703684        1        89        26.6521386        1
    11        -8.0774987        2        90        27.1975132        1
    12        -0.6165611        2        91        29.1618817        1
    13        -0.4451422        2        92        36.8930685        1
    14         0.0296437        1        93        36.8979414        1
    15         0.0620348        1        94        36.9020686        1
    16         0.1098208        1        95        36.9059790        1
    17         0.1406197        1        96        43.9524231        1
    18         0.1582642        1        97        44.1161740        1
    19         0.1721063        1        98        44.3909044        1
    20         0.1792828        1        99        46.4802579        1
    21         0.2478359        1       100        46.5350327        1
    22         0.3099177        1       101        46.6234910        1
    23         0.3199142        1       102        55.0782762        1
    24         0.3918105        1       103        55.6545211        1
    25         0.4380746        1       104       103.8700361        1
    26         0.4440480        1       105       138.6565262        1
    27         0.5005770        1       106       139.1006165        1
    28         0.6110651        1       107       150.0242517        1
    29         0.6788566        1       108         0.1156315        2
    30         0.7063182        1       109         0.1866312        2
    31         0.7177660        1       110         0.2617401        2
    32         0.7823174        1       111         0.3841715        2
    33         0.8715978        1       112         0.4191598        2
    34         0.8933219        1       113         0.6119523        2
    35         0.9157367        1       114         0.7133366        2
    36         0.9356704        1       115         0.7674191        2
    37         0.9582440        1       116         0.8837029        2
    38         1.0047124        1       117         0.9031745        2
    39         1.0322778        1       118         0.9202405        2
    40         1.1170148        1       119         1.0146242        2
    41         1.2358561        1       120         1.1221739        2
    42         1.2878719        1       121         1.2271629        2
    43         1.3501904        1       122         1.4168257        2
    44         1.3833006        1       123         1.5134076        2
    45         1.5691412        1       124         1.5663798        2
    46         1.6801814        1       125         2.1723366        2
    47         1.7077765        1       126         2.2677470        2
    48         1.8158128        1       127         2.3279029        2
    49         2.0719464        1       128         2.4530147        2
    50         2.2353821        1       129         2.4763224        2
    51         2.2952251        1       130         2.4923997        2
    52         2.3294080        1       131         2.7430409        2
    53         2.3568686        1       132         2.8956854        2
    54         2.4254883        1       133         3.0540175        2
    55         2.4626050        1       134         3.1362569        2
    56         2.4880703        1       135         3.3706653        2
    57         2.5172061        1       136         4.1347690        2
    58         2.7985238        1       137         4.1986373        2
    59         2.9442964        1       138         4.3609826        2
    60         2.9707856        1       139         5.4345928        2
    61         3.0657033        1       140         6.6604284        2
    62         3.1259985        1       141         6.7398669        2
    63         3.2670624        1       142         7.1273321        2
    64         3.3289122        1       143         7.2178728        2
    65         3.4805002        1       144         7.4018726        2
    66         3.7984748        1       145        10.3474190        2
    67         3.8511122        1       146        10.3853033        2
    68         4.4350449        1       147        12.6775208        2
    69         4.5657799        1       148        26.2533276        2
    70         4.7148477        1       149        36.8927371        2
    71         4.9203414        1       150        36.8931407        2
    72         5.2866838        1       151        36.9018752        2
    73         5.6251430        1       152        43.9203818        2
    74         5.8921483        1       153        43.9759026        2
    75         6.2710623        1       154        46.4802553        2
    76         6.6973599        1       155        46.5047964        2
    77         6.7915749        1       156        55.0170948        2
    78         7.2258145        1       157       138.3731679        2
    79         7.4122719        1
------------------------------------------------------------------------
  -104.893451244974       -20.6346459617016       -10.6132803800778     
  -8.08000922222505       -8.07764972797280       -1.42947980383638     
  -1.07074480333172      -0.738907975375072      -0.607930638999272     
 -0.470368372433648       -8.07749865468296      -0.616561073683122     
 -0.445142157088811       2.964373972711054E-002  6.203478846561265E-002
  0.109820780038679       0.140619701445974       0.158264244307088     
  0.172106281695868       0.179282784277884       0.247835873278572     
  0.309917743981385       0.319914183851650       0.391810517737048     
  0.438074630941852       0.444048044781152       0.500576974298831     
  0.611065110440509       0.678856552330203       0.706318192528106     
  0.717766020795968       0.782317354020542       0.871597777615334     
  0.893321865737959       0.915736710939272       0.935670434916906     
  0.958244019835173        1.00471242890016        1.03227783170438     
   1.11701482510851        1.23585614368751        1.28787194579606     
   1.35019041788561        1.38330061889313        1.56914121074825     
   1.68018143693276        1.70777648762953        1.81581276656799     
   2.07194636214455        2.23538205617492        2.29522508220734     
   2.32940797499715        2.35686857166286        2.42548834235075     
   2.46260497850916        2.48807026457819        2.51720612578116     
   2.79852382293625        2.94429636451133        2.97078557450599     
   3.06570333033642        3.12599852388523        3.26706236176905     
   3.32891215528253        3.48050018057700        3.79847483207139     
   3.85111215998808        4.43504486117413        4.56577990620477     
   4.71484769487796        4.92034141441400        5.28668384191183     
   5.62514298568223        5.89214831395779        6.27106229685651     
   6.69735987771305        6.79157487501012        7.22581452620017     
   7.41227187215337        7.65880762192887        7.91740655738217     
   9.04938349658796        10.3474431816397        10.4428921174077     
   10.6276347056801        12.7328621066112        13.2276155209020     
   18.2758363944732        26.6521385956690        27.1975131521050     
   29.1618816658089        36.8930685015752        36.8979414425159     
   36.9020686300791        36.9059790223756        43.9524230536539     
   44.1161739849957        44.3909044181667        46.4802578916276     
   46.5350326542631        46.6234909755842        55.0782762076780     
   55.6545210532392        103.870036148330        138.656526239370     
   139.100616469050        150.024251683976       0.115631509430946     
  0.186631150293957       0.261740127507324       0.384171535454667     
  0.419159751457275       0.611952262611489       0.713336613476194     
  0.767419051420681       0.883702914403895       0.903174498558631     
  0.920240483294496        1.01462423398113        1.12217389601167     
   1.22716294151466        1.41682568931150        1.51340758138518     
   1.56637984634283        2.17233660585940        2.26774695175063     
   2.32790288044627        2.45301468416814        2.47632242020106     
   2.49239968555671        2.74304088671083        2.89568541845337     
   3.05401747132907        3.13625689393143        3.37066528612548     
   4.13476898604417        4.19863731781629        4.36098258938554     
   5.43459281500868        6.66042839195227        6.73986693993974     
   7.12733205119740        7.21787282452584        7.40187261963579     
   10.3474190054414        10.3853032912339        12.6775207656827     
   26.2533275677431        36.8927370640001        36.8931406658342     
   36.9018752389817        43.9203818477981        43.9759026358927     
   46.4802553212035        46.5047963697469        55.0170948266391     
   138.373167903535     
 @CHECKOUT-I, Total execution time (CPU/WALL):       34.83/      19.67 seconds.
--executable xvtran finished with status     0 in       19.73 seconds (walltime).
 --invoking executable--
/home/asmola/.local/bin/xintprc
 @GETMEM-I,  Allocated    3814 MB of main memory.
  Processing integrals for CCSD calculation.
  @GMOIAA-I, Processing MO integrals for spin case AA.
  @GMOIAA-I, Generation of integral list completed.
                      TYPE                NUMBER
                      ----               --------
                      PPPP              27524020
                      PPPH               9932000
                      PPHH                900748
                      PHPH                491140
                      PHHH                 89950
                      HHHH                  2356

                     TOTAL              38940214

  @FORMT2-I, Second-order MP correlation energies:
            ------------------------------------------------
            E(SCF)                  =   -534.922548768432 a.u.
            E2(AA)                  =     -0.107027927376 a.u.
            E2(AB)                  =     -0.627850914294 a.u.
            E2(TOT)                 =     -0.841906769046 a.u.
            Total MP2 energy        =   -535.764455537479 a.u.
            ------------------------------------------------
   Largest T2 amplitudes for spin case AB:
       _       _                 _       _                 _       _
   i   j   a   b             i   j   a   b             i   j   a   b
-----------------------------------------------------------------------------
[  9   9  17  17]-0.02221 [  9   9  17  15] 0.02026 [  9   9  15  17] 0.02026
[  9   9  15  15]-0.02006 [ 13  13 112 112]-0.01780 [ 13  13 113 113]-0.01559
[ 13  13 116 116]-0.01537 [  9   9  18  17]-0.01374 [  9   9  17  18]-0.01374
[  9   9  20  15] 0.01348 [  9   9  15  20] 0.01348 [  9   9  20  17]-0.01320
[  9   9  17  20]-0.01320 [ 13  13 117 117]-0.01285 [ 10  10 117 117]-0.01272
-----------------------------------------------------------------------------
   Norm of T2AB vector (  1799624 symmetry allowed elements):  0.3216842448.
-----------------------------------------------------------------------------
 @CHECKOUT-I, Total execution time (CPU/WALL):        6.24/       9.32 seconds.
--executable xintprc finished with status     0 in        9.45 seconds (walltime).
  calling xvcc 
 --invoking executable--
/home/asmola/.local/bin/xvcc
 @GETMEM-I,  Allocated    3814 MB of main memory.
   CCSD energy will be calculated.
   The total correlation energy is -0.841906769046 a.u.
   The total correlation energy is -0.844216557704 a.u.
  Convergence information after     1 iterations: 
  Largest element of residual vector : -0.11827742E-01.
  Largest element of DIIS residual   : -0.11827742E-01.
   The total correlation energy is -0.857269171554 a.u.
  Convergence information after     2 iterations: 
  Largest element of residual vector : -0.28314884E-02.
  Largest element of DIIS residual   : -0.26389867E-02.
   The total correlation energy is -0.857275033949 a.u.
  Convergence information after     3 iterations: 
  Largest element of residual vector : -0.18821877E-02.
  Largest element of DIIS residual   : -0.10846794E-02.
   The total correlation energy is -0.858498769464 a.u.
  Convergence information after     4 iterations: 
  Largest element of residual vector : -0.25307593E-03.
  Largest element of DIIS residual   :  0.22855675E-03.
   The total correlation energy is -0.858613088451 a.u.
  Convergence information after     5 iterations: 
  Largest element of residual vector : -0.20431695E-03.
  Largest element of DIIS residual   : -0.14584816E-03.
   The total correlation energy is -0.858612708048 a.u.
  Convergence information after     6 iterations: 
  Largest element of residual vector : -0.80499296E-04.
  Largest element of DIIS residual   : -0.64003881E-04.
   The total correlation energy is -0.858613312890 a.u.
  Convergence information after     7 iterations: 
  Largest element of residual vector : -0.63714990E-04.
  Largest element of DIIS residual   : -0.46895903E-04.
   The total correlation energy is -0.858612961062 a.u.
  Convergence information after     8 iterations: 
  Largest element of residual vector : -0.31225183E-04.
  Largest element of DIIS residual   : -0.20642681E-04.
   The total correlation energy is -0.858612788530 a.u.
  Convergence information after     9 iterations: 
  Largest element of residual vector : -0.17740663E-04.
  Largest element of DIIS residual   : -0.10504909E-04.
   The total correlation energy is -0.858613491609 a.u.
  Convergence information after    10 iterations: 
  Largest element of residual vector : -0.86913088E-05.
  Largest element of DIIS residual   : -0.46016856E-05.
   The total correlation energy is -0.858613709480 a.u.
  Convergence information after    11 iterations: 
  Largest element of residual vector : -0.27795548E-05.
  Largest element of DIIS residual   :  0.16274822E-05.
   The total correlation energy is -0.858613839541 a.u.
  Convergence information after    12 iterations: 
  Largest element of residual vector : -0.16039155E-05.
  Largest element of DIIS residual   : -0.74695879E-06.
   The total correlation energy is -0.858613882982 a.u.
  Convergence information after    13 iterations: 
  Largest element of residual vector : -0.39405442E-06.
  Largest element of DIIS residual   : -0.37840676E-06.
   The total correlation energy is -0.858613885980 a.u.
  Convergence information after    14 iterations: 
  Largest element of residual vector : -0.27254433E-06.
  Largest element of DIIS residual   : -0.17553360E-06.
   The total correlation energy is -0.858613886752 a.u.
  Convergence information after    15 iterations: 
  Largest element of residual vector :  0.11635975E-06.
  Largest element of DIIS residual   :  0.98591876E-07.
   The total correlation energy is -0.858613886507 a.u.
  Convergence information after    16 iterations: 
  Largest element of residual vector : -0.83623559E-07.
  Largest element of DIIS residual   : -0.40975704E-07.
   The total correlation energy is -0.858613887296 a.u.
  Convergence information after    17 iterations: 
  Largest element of residual vector : -0.42196850E-07.
  Largest element of DIIS residual   : -0.27701581E-07.
   The total correlation energy is -0.858613887404 a.u.
  Convergence information after    18 iterations: 
  Largest element of residual vector : -0.18796346E-07.
  Largest element of DIIS residual   :  0.12760806E-07.
   The total correlation energy is -0.858613887588 a.u.
  Convergence information after    19 iterations: 
  Largest element of residual vector : -0.11817030E-07.
  Largest element of DIIS residual   : -0.63411467E-08.
   The total correlation energy is -0.858613887727 a.u.
  Convergence information after    20 iterations: 
  Largest element of residual vector : -0.34317931E-08.
  Largest element of DIIS residual   :  0.25268449E-08.
   The total correlation energy is -0.858613887748 a.u.
  Convergence information after    21 iterations: 
  Largest element of residual vector : -0.21042521E-08.
  Largest element of DIIS residual   : -0.13390654E-08.
   The total correlation energy is -0.858613887772 a.u.
  Convergence information after    22 iterations: 
  Largest element of residual vector : -0.91489389E-09.
  Largest element of DIIS residual   : -0.70307830E-09.
   The total correlation energy is -0.858613887769 a.u.
  Convergence information after    23 iterations: 
  Largest element of residual vector : -0.54456595E-09.
  Largest element of DIIS residual   :  0.31636711E-09.
   The total correlation energy is -0.858613887767 a.u.
  Convergence information after    24 iterations: 
  Largest element of residual vector : -0.27664036E-09.
  Largest element of DIIS residual   : -0.25453698E-09.
   The total correlation energy is -0.858613887767 a.u.
  Convergence information after    25 iterations: 
  Largest element of residual vector : -0.17062722E-09.
  Largest element of DIIS residual   : -0.13740436E-09.
   The total correlation energy is -0.858613887767 a.u.
  Convergence information after    26 iterations: 
  Largest element of residual vector : -0.11231431E-09.
  Largest element of DIIS residual   : -0.82251178E-10.
   The total correlation energy is -0.858613887769 a.u.
  Convergence information after    27 iterations: 
  Largest element of residual vector : -0.53092332E-10.
  Largest element of DIIS residual   : -0.37111623E-10.
  Amplitude equations converged in    27iterations.
[...]
 final tnorm  0.848153620540354     
  norm contr. I: |<0|L dT/dx|0>|^2   0.000000000000000E+000
  norm contr. II: <0|[nabla(1+L)e-T][nabla e^T]|0>  0.488620763868120     
  total norm contribution  0.488620763868120     
 oo  2.104087126584696E-003
 vv  -1.55712673112747     
 vo -2.421779283906775E-002
  Correlated perturbed 1-el contribution to DBOC  -1.57924043683995       cm**-1
  SUM_I |dc_I/dx|^2 contribution to DBOC  0.795929156285023       cm**-1
 
 
  The total diagonal Born-Oppenheimer correction (DBOC) is:      0.0084111050 a.u.
  The total diagonal Born-Oppenheimer correction (DBOC) is:       1846.024164 cm-1
 
 Total CC energy including DBOC  -535.772751551224     
 First-order density matrix is being calculated  (Symmetry block 2, perturbation   3)
 Calculation of the contributions of <pq||rs> to dI(i,j)/dx required   2.5 seconds.
 Calculation of the contributions of <pq||rs> to dI(a,b)/dx required  10.5 seconds.
 Calculation of the contributions of <pq||rs> to dI(i,a)/dx required   6.3 seconds.
 First-order Z-vector equations are solved for 1 perturbation.
 Convergence reached after  22 iterations.
        U*G(pq,rs) contribution is being calculated
             (Symmetry block 2, perturbation   3)

 CCSD contribution to force constants 

        0.0000000000        0.0000000000        0.0000000000
        0.0000000000        0.0000000000        0.0000000000
        0.0000000000        0.0000000000        0.0000000000
        0.0000000000        0.0000000000        0.0000000000
        0.0000000000        0.0000000000        0.0000000000
        0.0000000000        0.0000000000        0.0000000000
        0.0000000000        0.0000000000        0.0000000000
        0.0000000000        0.0000000000        0.0000000000
        0.0000000000        0.0000000000        0.0000000000
        0.0000000000        0.0000000000        0.0000000000
        0.0000000000        0.0000000000        0.0000000000
        0.0000000000        0.0000000000        0.0000000000
        0.0000000000        0.0000000000        0.0000000000
        0.0000000000        0.0000000000        0.0000000000
        0.0000000000        0.0000000000        0.0000000000
        0.0000000000        0.0000000000        0.0000000000
        0.0000000000        0.0000000000        0.0000000000
        0.0000000000        0.0000000000        0.0000000000
        0.0000000000        0.0000000000        0.0000000000
        0.0000000000        0.0000000000        0.0000000000
        0.0000000000        0.0000000000        0.0000000000
        0.0000000000        0.0000000000        0.0000000000
        0.0000000000        0.0000000000        0.0000000000
        0.0000000000        0.0000000000        0.0000000000
        0.0000000000        0.0000000000        0.0000000000
        0.0000000000        0.0000000000        0.0000000000
       -0.0326773928        0.1845714342       -0.1518940414

 CCSD contribution to dipole derivatives 

        0.0000000000        0.0000000000        0.0000000000
        0.0000000000        0.0000000000        0.0000000000
        0.0000000000        0.0000000000        0.0000000000
        0.0000000000        0.0000000000        0.0000000000
        0.0000000000        0.0000000000        0.0000000000
        0.0000000000        0.0000000000        0.0000000000
        0.0000000000        0.0000000000        0.0000000000
        0.0000000000        0.0000000000        0.0000000000
        0.0000000000        0.0000000000        0.0116922717
 @CHECKOUT-I, Total execution time (CPU/WALL):      935.09/     252.72 seconds.
--executable xsdcc finished with status     0 in      252.90 seconds (walltime).
 --invoking executable--
/home/asmola/.local/bin/xanti
 @GETMEM-I,  Allocated    3814 MB of main memory.
 CCSD MO derivative gammas will be sorted to Mulliken order.
 @CHECKOUT-I, Total execution time (CPU/WALL):        6.56/       5.72 seconds.
--executable xanti finished with status     0 in        5.84 seconds (walltime).
 --invoking executable--
/home/asmola/.local/bin/xbcktrn
 @GETMEM-I,  Allocated    3814 MB of main memory.
 CCSD MO derivative gammas will be transformed to the AO basis.
 @CHECKOUT-I, Total execution time (CPU/WALL):       11.74/      12.77 seconds.
--executable xbcktrn finished with status     0 in       12.84 seconds (walltime).
 --invoking executable--
/home/asmola/.local/bin/xvdint
 @GETMEM-I,  Allocated    3814 MB of main memory.
 One- and two-electron integral derivatives are calculated
 for RHF-CC/MBPT hessians and dipole derivatives.
 Spherical gaussians are used.
  magnet F F
 Evaluation of 2el integral derivatives

                      Two-electron integral gradient
                      ------------------------------

                         O #1 x     0.0000000000
                         O #1 y     0.0000000000
                         H #2 x     0.0000000000
                         H #2 y     0.0000000000
                         CL#3 x     0.0000000000
                         CL#3 y     0.0000000000


 O #1       0.0000000000            0.0000000000           -0.0908844280
 H #2       0.0000000000            0.0000000000            0.0030609275
 CL#3       0.0000000000            0.0000000000            0.0878235005


 Evaluation of 2e integral derivatives required  123.43 seconds.
  contribution to Hessian
        0.0000000000        0.0000000000        0.0000000000
        0.0000000000        0.0000000000        0.0000000000
       -0.0908844280        0.0030609275        0.0878235005
 @CHECKOUT-I, Total execution time (CPU/WALL):      123.54/      21.14 seconds.
--executable xvdint finished with status     0 in       21.30 seconds (walltime).
 --invoking executable--
/home/asmola/.local/bin/xanti
 @GETMEM-I,  Allocated    3814 MB of main memory.
 CCSD MO gammas will be sorted to Mulliken order.
 @CHECKOUT-I, Total execution time (CPU/WALL):        9.50/      16.69 seconds.
--executable xanti finished with status     0 in       16.80 seconds (walltime).
 --invoking executable--
/home/asmola/.local/bin/xbcktrn
 @GETMEM-I,  Allocated    3814 MB of main memory.
 CCSD MO gammas will be transformed to the AO basis.
 @CHECKOUT-I, Total execution time (CPU/WALL):       19.26/       2.90 seconds.
--executable xbcktrn finished with status     0 in        2.98 seconds (walltime).
 --invoking executable--
/home/asmola/.local/bin/xvdint
 @GETMEM-I,  Allocated    3814 MB of main memory.
 One- and two-electron integral derivatives are calculated
 for RHF-CC/MBPT hessians and dipole derivatives.
 Spherical gaussians are used.
  magnet F F

                     Kinetic energy integral gradient
                     --------------------------------

                         O #1 x    -0.0203715824
                         O #1 y    -0.6878301189
                         H #2 x     0.3635897163
                         H #2 y     0.7143858973
                         CL#3 x    -0.3432181339
                         CL#3 y    -0.0265557784


 O #1      -0.0203715824           -0.6878301189            0.0000000000
 H #2       0.3635897163            0.7143858973            0.0000000000
 CL#3      -0.3432181339           -0.0265557784            0.0000000000



                   Nuclear attraction integral gradient
                   ------------------------------------

                         O #1 x   -23.1569631389
                         O #1 y     6.6804638454
                         H #2 x    -5.0686327606
                         H #2 y    -6.9649888752
                         CL#3 x    28.2255958994
                         CL#3 y     0.2845250298


 O #1     -23.1569631389            6.6804638454            0.0000000000
 H #2      -5.0686327606           -6.9649888752            0.0000000000
 CL#3      28.2255958994            0.2845250298            0.0000000000



                      Reorthonormalization gradient
                      -----------------------------

                         O #1 x     0.0000000000
                         O #1 y     0.0000000000
                         H #2 x     0.0000000000
                         H #2 y     0.0000000000
                         CL#3 x     0.0000000000
                         CL#3 y     0.0000000000


 O #1       0.0000000000            0.0000000000            0.0000000000
 H #2       0.0000000000            0.0000000000            0.0000000000
 CL#3       0.0000000000            0.0000000000            0.0000000000



                     Kinetic energy integral Hessian
                     -------------------------------


           Symmetry 1

           O #1 x      O #1 y      H #2 x      H #2 y      CL#3 x      CL#3 y

 O #1 x   -0.309670
 O #1 y    0.494109    0.004184
 H #2 x    0.679274   -0.486261   -0.684508
 H #2 y   -0.486261   -0.217970    0.498860    0.220806
 CL#3 x   -0.369604   -0.007847    0.005235   -0.012598    0.364369
 CL#3 y   -0.007847    0.213786   -0.012598   -0.002836    0.020446   -0.210949


           Symmetry 2

           O #1 z      H #2 z      CL#3 z

 O #1 z   -1.175140
 H #2 z    0.971562   -0.977264
 CL#3 z    0.203578    0.005702   -0.209280




           O #1 x      O #1 y      O #1 z      H #2 x      H #2 y      H #2 z

 O #1 x   -0.309670
 O #1 y    0.494109    0.004184
 O #1 z    0.000000    0.000000   -1.175140

 H #2 x    0.679274   -0.486261    0.000000   -0.684508
 H #2 y   -0.486261   -0.217970    0.000000    0.498860    0.220806
 H #2 z    0.000000    0.000000    0.971562    0.000000    0.000000   -0.977264

 CL#3 x   -0.369604   -0.007847    0.000000    0.005235   -0.012598    0.000000
 CL#3 y   -0.007847    0.213786    0.000000   -0.012598   -0.002836    0.000000
 CL#3 z    0.000000    0.000000    0.203578    0.000000    0.000000    0.005702


           CL#3 x      CL#3 y      CL#3 z

 CL#3 x    0.364369
 CL#3 y    0.020446   -0.210949
 CL#3 z    0.000000    0.000000   -0.209280




                   Nuclear attraction integral Hessian
                   -----------------------------------


           Symmetry 1

           O #1 x      O #1 y      H #2 x      H #2 y      CL#3 x      CL#3 y

 O #1 x   -7.416764
 O #1 y   -2.587194   10.921128
 H #2 x   -6.892549    3.421089    6.364733
 H #2 y    3.492424   -0.608956   -4.284816    0.551095
 CL#3 x   14.309313   -0.833895    0.527817    0.792392  -14.837130
 CL#3 y   -0.905230  -10.312173    0.863727    0.057860    0.041503   10.254312


           Symmetry 2

           O #1 z      H #2 z      CL#3 z

 O #1 z   18.668326
 H #2 z   -8.962610    9.456998
 CL#3 z   -9.705715   -0.494388   10.200103




           O #1 x      O #1 y      O #1 z      H #2 x      H #2 y      H #2 z

 O #1 x   -7.416764
 O #1 y   -2.587194   10.921128
 O #1 z    0.000000    0.000000   18.668326

 H #2 x   -6.892549    3.421089    0.000000    6.364733
 H #2 y    3.492424   -0.608956    0.000000   -4.284816    0.551095
 H #2 z    0.000000    0.000000   -8.962610    0.000000    0.000000    9.456998

 CL#3 x   14.309313   -0.833895    0.000000    0.527817    0.792392    0.000000
 CL#3 y   -0.905230  -10.312173    0.000000    0.863727    0.057860    0.000000
 CL#3 z    0.000000    0.000000   -9.705715    0.000000    0.000000   -0.494388


           CL#3 x      CL#3 y      CL#3 z

 CL#3 x  -14.837130
 CL#3 y    0.041503   10.254312
 CL#3 z    0.000000    0.000000   10.200103




                Highest order reorthonormalization Hessian
                ------------------------------------------


           Symmetry 1

           O #1 x      O #1 y      H #2 x      H #2 y      CL#3 x      CL#3 y

 O #1 x    0.000000
 O #1 y    0.000000    0.000000
 H #2 x    0.000000    0.000000    0.000000
 H #2 y    0.000000    0.000000    0.000000    0.000000
 CL#3 x    0.000000    0.000000    0.000000    0.000000    0.000000
 CL#3 y    0.000000    0.000000    0.000000    0.000000    0.000000    0.000000


           Symmetry 2

           O #1 z      H #2 z      CL#3 z

 O #1 z    0.000000
 H #2 z    0.000000    0.000000
 CL#3 z    0.000000    0.000000    0.000000




           O #1 x      O #1 y      O #1 z      H #2 x      H #2 y      H #2 z


           CL#3 x      CL#3 y      CL#3 z




                Electronic contributions to dipole moment
                -----------------------------------------

                               au             Debye

                    x      2.72670314      6.93058929
                    y      0.17905325      0.45510804

  Conversion factor used: 1 a.u. =   2.54174691 Debye 



   Electronic contributions to static part of dipole moment derivatives
   --------------------------------------------------------------------


                     Total dipole moment derivatives
                     -------------------------------


           Symmetry 1
                              Ex             Ey

               O #1 x    -8.80593194    -0.07787827
               O #1 y    -0.20669255    -8.70709495
               H #2 x    -0.39459012     0.12240040
               H #2 y     0.27553941    -0.43050754
               CL#3 x   -16.79947794    -0.04452212
               CL#3 y    -0.06884686   -16.86239751

           Symmetry 2
                              Ez

               O #1 z    -8.33027269
               H #2 z    -0.79359230
               CL#3 z   -16.87613500



                       Ex          Ey          Ez

      O #1    x   -8.805932   -0.077878    0.000000
      O #1    y   -0.206693   -8.707095    0.000000
      O #1    z    0.000000    0.000000   -8.330273

      H #2    x   -0.394590    0.122400    0.000000
      H #2    y    0.275539   -0.430508    0.000000
      H #2    z    0.000000    0.000000   -0.793592

      CL#3    x  -16.799478   -0.044522    0.000000
      CL#3    y   -0.068847  -16.862398    0.000000
      CL#3    z    0.000000    0.000000  -16.876135

 Evaluation of 1e integral derivatives required    1.68 seconds.
 Evaluation of 2el integral derivatives

                      Two-electron integral gradient
                      ------------------------------

                         O #1 x    10.5971774194
                         O #1 y    -2.7120825192
                         H #2 x     2.7012140367
                         H #2 y     3.0597303108
                         CL#3 x   -13.2983914561
                         CL#3 y    -0.3476477916


 O #1      10.5971774194           -2.7120825192            0.0000000000
 H #2       2.7012140367            3.0597303108            0.0000000000
 CL#3     -13.2983914561           -0.3476477916            0.0000000000


 Evaluation of 2e integral derivatives required  326.51 seconds.

                            Molecular gradient
                            ------------------

                         O #1 x    -0.0501810832
                         O #1 y     0.1688711402
                         H #2 x    -0.1211071334
                         H #2 y    -0.1885561778
                         CL#3 x     0.1712882166
                         CL#3 y     0.0196850376


 O #1      -0.0501810832            0.1688711402            0.0000000000
 H #2      -0.1211071334           -0.1885561778            0.0000000000
 CL#3       0.1712882166            0.0196850376            0.0000000000


  Molecular gradient norm 0.333E+00

                            Molecular hessian
                            -----------------


           Symmetry 1

           O #1 x      O #1 y      H #2 x      H #2 y      CL#3 x      CL#3 y

 O #1 x    3.942910
 O #1 y    2.669897    8.843211
 H #2 x   -2.077926   -4.923626    1.884541
 H #2 y   -2.827212   -8.636966    3.109441    7.999495
 CL#3 x   -1.864982    0.513944   -0.299423   -0.361363    2.164406
 CL#3 y    0.157314   -0.206245   -0.247591    0.093570    0.090277    0.112675


           Symmetry 2

           O #1 z      H #2 z      CL#3 z

 O #1 z   -4.108649
 H #2 z    4.321342   -4.643971
 CL#3 z   -0.212693    0.179279    0.033414




           O #1 x      O #1 y      O #1 z      H #2 x      H #2 y      H #2 z

 O #1 x    3.942910
 O #1 y    2.669897    8.843211
 O #1 z    0.000000    0.000000   -4.108649

 H #2 x   -2.077926   -4.923626    0.000000    1.884541
 H #2 y   -2.827212   -8.636966    0.000000    3.109441    7.999495
 H #2 z    0.000000    0.000000    4.321342    0.000000    0.000000   -4.643971

 CL#3 x   -1.864982    0.513944    0.000000   -0.299423   -0.361363    0.000000
 CL#3 y    0.157314   -0.206245    0.000000   -0.247591    0.093570    0.000000
 CL#3 z    0.000000    0.000000   -0.212693    0.000000    0.000000    0.179279


           CL#3 x      CL#3 y      CL#3 z

 CL#3 x    2.164406
 CL#3 y    0.090277    0.112675
 CL#3 z    0.000000    0.000000    0.033414




                           Total dipole moment
                           -------------------

                               au             Debye

                    x     -0.13032507     -0.33125334
                    y     -0.55224902     -1.40367723

  Conversion factor used: 1 a.u. =   2.54174691 Debye 



                     Total dipole moment derivatives
                     -------------------------------


           Symmetry 1
                              Ex             Ey

               O #1 x    -0.49255807    -0.04847068
               O #1 y    -0.20230230    -0.19204532
               H #2 x     0.24913749     0.02434446
               H #2 y     0.13869398     0.21035909
               CL#3 x     0.24342103     0.02412609
               CL#3 y     0.06360836    -0.01831378

           Symmetry 2
                              Ez

               O #1 z    -0.35909020
               H #2 z     0.34119675
               CL#3 z     0.01789341



                       Ex          Ey          Ez

      O #1    x   -0.492558   -0.048471    0.000000
      O #1    y   -0.202302   -0.192045    0.000000
      O #1    z    0.000000    0.000000   -0.359090

      H #2    x    0.249137    0.024344    0.000000
      H #2    y    0.138694    0.210359    0.000000
      H #2    z    0.000000    0.000000    0.341197

      CL#3    x    0.243421    0.024126    0.000000
      CL#3    y    0.063608   -0.018314    0.000000
      CL#3    z    0.000000    0.000000    0.017893

  Molecular gradient does not satisfy rotational invariance condition.
   rotational invariance in yz-plane :        0.0000E+00
   rotational invariance in xz-plane :        0.0000E+00
   rotational invariance in xy-plane :        0.6770E-02
 @CHECKOUT-I, Total execution time (CPU/WALL):      328.26/      47.70 seconds.
--executable xvdint finished with status     0 in       47.80 seconds (walltime).
 --invoking executable--
/home/asmola/.local/bin/xjoda
  @GTFLGS-I, Hessian will be transformed to curvilinear coordinates.
  @GTFLGS-I, Hessian will be transformed to curvilinear coordinates.
  igrd and ihes are                      0                     1
  gradient from JOBARC 
  -0.050181083209053   0.168871140241439   0.000000000000000
  -0.121107133355074  -0.188556177839110   0.000000000000000
   0.171288216564115   0.019685037597673   0.000000000000000
 
  @PROJFCM-I, Projecting force constant matrix onto totally symmetric subspace.
  Largest difference between matrix elements of symmetrized
  and unsymmetrized FCM :     0.0000000000E+00.
  read isotopes from ZMAT file 
 
  Summary of diagonal Born-Oppenheimer correction at the correlated level
  The total diagonal Born-Oppenheimer correction (DBOC) is:      0.0084111050 a.u.
  The total diagonal Born-Oppenheimer correction (DBOC) is:       1846.024164 cm-1
  The total diagonal Born-Oppenheimer correction (DBOC) is:            22.083 kJ/mole
  hellooooooo 
  readis is  F
 
 @CHECKOUT-I, Total execution time (CPU/WALL):        0.01/       0.04 seconds.
--executable xjoda finished with status     0 in        0.09 seconds (walltime).
  The final electronic energy is      -535.772751551224474 a.u. 
  This computation required                         2937.16 seconds (walltime).
