 --invoking executable--
/home/asmola/.local/bin/xjoda


   *************************************************************************
         <<<     CCCCCC     CCCCCC   |||     CCCCCC     CCCCCC   >>>
       <<<      CCC        CCC       |||    CCC        CCC         >>>
      <<<      CCC        CCC        |||   CCC        CCC            >>>
    <<<        CCC        CCC        |||   CCC        CCC              >>>
      <<<      CCC        CCC        |||   CCC        CCC            >>>
       <<<      CCC        CCC       |||    CCC        CCC         >>>
         <<<     CCCCCC     CCCCCC   |||     CCCCCC     CCCCCC   >>>
   *************************************************************************

     ****************************************************************
     * CFOUR Coupled-Cluster techniques for Computational Chemistry *
     ****************************************************************
 

   Department of Chemistry                Institut fuer Physikalische Chemie
   University of Florida                  Universitaet Mainz
   Gainesville, FL 32611, USA             D-55099 Mainz, Germany

   Department of Chemistry                Fakultaet fuer Chemie und Biowiss.
   Johns Hopkins University               Karlsruher Institut fuer Technologie
   Baltimore, MD 21218, USA               D-76131 Karlsruhe, Germany

   Department of Chemistry                Department of Physical Chemistry
   Southern Methodist University          Eotvos Lorand University
   Dallas, TX 75275, USA                  H-1053 Budapest, Hungary

 
                       Version 2.1
 
                     vincent.theory.phys.ucl.ac.uk                     
                     Thu 30 Jan 13:25:42 GMT 2025                      
                     integer*8 version is running
 
********************************************************************************
*                          Input from ZMAT file                                *
********************************************************************************
Hypochlorous acid DBOC calculation                                              
O                                                                               
H 1 ROH                                                                         
CL 1 ROCL 2 A                                                                   
                                                                                
ROH=1.4500000000000006                                                          
ROCL=1.683                                                                      
A=107.0                                                                         
                                                                                
                                                                                
*CFOUR(CALC=CCSD,BASIS=AUG-PCVTZ,SCF_CONV=10                                    
CC_CONV=10,DBOC=ON,MEMORY=500000000)                                            
********************************************************************************
  @GTFLGS-I, Hessian will be transformed to curvilinear coordinates.
    -------------------------------------------------------------------
                    CFOUR Control Parameters 
    -------------------------------------------------------------------
        External           Internal           Value            Units
          Name               Name
    -------------------------------------------------------------------
       ABCDTYPE             IABCDT         STANDARD    [  0]    ***   
       ANHARMONIC           IANHAR         OFF         [  0]    ***   
       ANH_ALGORIT          IANALG         STANDARD    [  0]    ***   
       ANH_DERIVAT          IANDER         SECOND      [  1]    ***   
       ANH_MODE             ANHMOD         VIBRATION   [  0]    ***   
       ANH_STEPSIZ          ICUBST             50000          x 10-6  
       ANH_SYMMETR          IANHSM         ABELIAN     [  0]    ***   
       AO_LADDERS           IAOLAD         SINGLEPASS  [  1]    ***   
       AV_SCF               IAVSCF         OFF         [  0]    ***   
       BASIS                IBASIS         AUG-PCVTZ   [ 51]    ***   
       BOTHVECTORS          BOTHVC         OFF         [  0]    ***   
       BOX_POTENT           IPIAB          OFF         [  0]    ***   
       BREIT                IBREIT         OFF         [  0]    ***   
       BRUCK_CONV           IBRTOL          10D-  4             ***   
       BRUECKNER            IBRKNR         OFF         [  0]    ***   
       BUFFERSIZE           IBUFFS              4096            ***   
       CACHE_RECS           ICHREC             10               ***   
       CALCLEVEL            ICLLVL         CCSD        [ 10]    ***   
       CCORBOPT             ICCORB         OFF         [  0]  x 0.01  
       CC_CONV              ICCCNV          10D- 10             ***   
       CC_EXPORDER          ICCEOR              5               ***   
       CC_EXTRAPOL          ICCEXT         DIIS        [  1]    ***   
       CC_GUESS             ICCGES         MP2         [  0]    ***   
       CC_MAXCYC            ICCCYC            100              cycles 
       CC_PROGRAM           ICCPRO         VCC         [  0]    ***   
       CHARGE               ICHRGE              0               ***   
       CHOLESKY             ICHOLE         OFF         [  0]    ***   
       CIS_CONV             ICISTL              5               ***   
       COMM_SIZE            IPSIZE            ***               ***   
       CONSTANT             ICONST         OLD         [  1]    ***   
       CONTINUUM            ICONTU         NONE        [  0]    ***   
       CONTRACTION          ICNTYP         GENERAL     [  1]    ***   
       COORDINATES          ICOORD         INTERNAL    [  0]    ***   
       CPHF_CONVER          ICPHFT          10D- 16             ***   
       CPHF_MAXCYC          ICPHFC             64              cycles 
       CUBIC                ICUBIC         OFF         [  0]    ***   
       CURVILINEAR          ICURVY         ON          [  1]    ***   
       DBOC                 IDBOC          ON          [  1]    ***   
       DCT                  IDCT           OFF         [  0]    ***   
       DERIV_LEV            IDRLVL         SECOND      [  2]    ***   
       DEVMEM_SIZE          IDVMEM          50000000           MByte  
       DIAG_MRCC            IEOMST          10D-  0             ***   
       DIFF_TYPE            IDIFTY         RELAXED     [  0]    ***   
       DIRECT               IDIRCT         OFF         [  0]    ***   
       DROPMO               IDRPMO      NONE         
       ECP                  IECP           OFF         [  0]    ***   
       EIGENVECTOR          IVEC                1               ***   
       EL_ANHARM            IELANH         OFF         [  0]    ***   
       EOMFOLLOW            IEOMSR         ENERGY      [  0]    ***   
       EOMIP                IEOMIP         OFF         [  0]    ***   
       EOMLEVEL             HBARFM         SAME        [  0]    ***   
       EOM_MRCC             IMRCCE         NEW         [  1]    ***   
       EOM_NONIT            EOMNON         OFF         [  0]    ***   
       EOM_NSING            IEOMSI          10D-  0             ***   
       EOM_NSTATES          IMRCCD         DAVIDSON    [  0]    ***   
       EOM_NTRIP            IEOMTR          10D-  0             ***   
       EOM_ORDER            IEXORD         ENERGY      [  0]    ***   
       EOM_PROPSTA          IEOMST              0               ***   
       ESTATE_CONV          IEXTOL          10D-  5             ***   
       ESTATE_DIAG          IEXDIG         ITERATIVE   [  0]    ***   
       ESTATE_LOCK          IESLOC         ON          [  1]    ***   
       ESTATE_MAXC          IEXMXC             40               ***   
       ESTATE_PROP          IEXPRP         OFF         [  0]    ***   
       EVAL_HESS            IRECAL              0            # of cyc.
       EXCITATION           IEXCIT              0               ***   
       EXCITE               IEXCIT         NONE        [  0]    ***   
       EXTERN_POT           IEXPOT         OFF         [  0]    ***   
       FCGRADNEW            IFCGNW         OFF         [  0]    ***   
       FC_FIELD             IFINFC              0             x 10-6  
       FD_CALTYPE           IFDCAL         GRADONLY    [  0]    ***   
       FD_PROJECT           IFDPRJ         OFF         [  1]    ***   
       FD_STEPSIZE          IDISFD              0            10-4 bohr
       FD_USEGROUP          IFDGRP         FULL        [  0]    ***   
       FILE_RECSIZ          IFLREC              4096           words  
       FINITE_PERT          IFIPER              0             x 10-6  
       FIXGEOM              IFIXGM         OFF         [  0]    ***   
       FOCK                 IFOCK          AO          [  1]    ***   
       FREQ_ALGORI          IVIALG         STANDARD    [  0]    ***   
       FROZEN_CORE          IFROCO         OFF         [  0]    ***   
       GAMMA_ABCD           IGABCD         STORE       [  0]    ***   
       GAMMA_ABCI           IGABCI         STORE       [  0]    ***   
       GENBAS_1             IGNBS1              0               ***   
       GENBAS_2             IGNBS2              0               ***   
       GENBAS_3             IGNBS3              0               ***   
       GENBAS_4             IGNBS4              0               ***   
       GEO_CONV             ICONTL              5              H/bohr 
       GEO_MAXCYC           IOPTCY             50               ***   
       GEO_MAXSTEP          IMXSTP            300            millibohr
       GEO_METHOD           INR            SINGLE_POINT[  5]    ***   
       GIAO                 IGIAO          OFF         [  1]    ***   
       GIMIC                IGIMIC         OFF         [  0]    ***   
       GRID                 IGRID          OFF         [  0]    ***   
       GRID_ALGO            IGALGO         SERIAL      [  0]    ***   
       GUESS                IGUESS         MOREAD      [  0]    ***   
       HBAR                 IHBAR          OFF         [  0]    ***   
       HESS_TYPE            IHESTP         SCF         [  0]    ***   
       HF2_FILE             IHF2Fl         USE         [  1]    ***   
       HFSTABILITY          ISTABL         OFF         [  0]    ***   
       INCORE               INCORE         OFF         [  0]    ***   
       INPUT_MRCC           IMRCC          ON          [  1]    ***   
       INTEGRALS            INTTYP         VMOL        [  1]    ***   
       JODA_PRINT           IJPRNT              0               ***   
       KEYWORD_OUT          IDMPKW         NO          [  0]    ***   
       LINDEP_TOL           ILINDP              8               ***   
       LINEQ_CONV           IZTACN          10D-  7           cycles  
       LINEQ_EXPOR          ILMAXD              5               ***   
       LINEQ_MAXCY          ILMAXC            100               ***   
       LINEQ_TYPE           ILTYPE         DIIS        [  1]    ***   
       LOCK_ORBOCC          ILOCOC         OFF         [  0]    ***   
       MEMORY_SIZE          IMEMSZ         500000000           words  
       MEM_UNIT             IMEMU          INTEGERWORDS[  0]    ***   
       MRCC                 IMRCCC         OFF         [  0]    ***   
       MULTIPLICTY          IMULTP              1               ***   
       NACOUPLING           IVCOUP         OFF         [  0]    ***   
       NEGEVAL              IDIE           ABORT       [  0]    ***   
       NEWNORM              INEWNO         OFF         [  0]    ***   
       NON-HF               INONHF         OFF         [  0]    ***   
       NTOP_TAMP            ITOPT2             15               ***   
       NUC_MODEL            INUCMO         POINT       [  0]    ***   
       OCCUPATION           IOCCU   ESTIMATED BY SCF 
       OPEN-SHELL           IOPEN          SPIN-ORBITAL[  0]    ***   
       OPTVIB               IOPTVB         OFF         [  0]    ***   
       ORBITALS             IORBTP         STANDARD    [  0]    ***   
       PARALLEL             IPARAL         ON          [  1]    ***   
       PARA_INT             IPINTS         ON          [  1]    ***   
       PARA_PRINT           IPPRIN              0               ***   
       PERT_ORB             IPTORB         STANDARD    [  0]    ***   
       POINTS               IGRDFD              0               ***   
       PRINT                IPRNT               0               ***   
       PROPS                IPROPS         OFF         [  0]    ***   
       PROP_INTEGR          IINTYP         INTERNAL    [  0]    ***   
       PSI                  IPSI           OFF         [  0]    ***   
       QC_ALG               IQCALG         FLM         [  0]    ***   
       QC_LINALG            IQCLIN         TRIDIAG     [  2]    ***   
       QC_MAXCYC            IQCMAX          10D-100           cycles  
       QC_MAXSCFCY          IQCMSC          10D- 15           cycles  
       QC_RTRUST            IQCRTR          10D-  0           x 10-3  
       QC_SKIPSCF           IQCSKI         OFF         [  0]    ***   
       QC_START             IQCSTA          10D-  1             ***   
       QRHFGUESS            IQGUES         OFF         [  0]    ***   
       QUARTIC              IQUART         OFF         [  0]    ***   
       RAMAN_INT            IRAMIN         OFF         [  0]    ***   
       RAMAN_ORB            IRAMRE         UNRELAXED   [  0]    ***   
       RDO                  IRDOFM         ON          [  1]    ***   
       REDUCE_REPR          REDREP         Ir          [  0]    ***   
       REFERENCE            IREFNC         RHF         [  0]    ***   
       RELATIVIST           IRELAT         OFF         [  0]    ***   
       RELAX_DENS           IRDENS         ON          [  1]    ***   
       RESET_FLAGS          IRESET         OFF         [  0]    ***   
       RESTART_CC           ICCRES         OFF         [  0]    ***   
       ROT_EVEC             ROTVEC              0               ***   
       SAVE_INTS            ISVINT         OFF         [  0]    ***   
       SCALE_ON             ISTCRT              0               ***   
       SCF_CONV             ISCFCV          10D- 10             ***   
       SCF_DAMPING          IDAMP               0             x 10-3  
       SCF_EXPORDE          IRPPOR              6               ***   
       SCF_EXPSTAR          IRPPLS              8               ***   
       SCF_EXTRAPO          IRPP           ON          [  1]    ***   
       SCF_MAXCYC           ISCFCY            150              cycles 
       SCF_NOSTOP           ISCFST         OFF         [  0]    ***   
       SCF_PRINT            ISCFPR              0               ***   
       SCF_PROG             ISCFPR         SCF         [  0]    ***   
       SD_FIELD             IFINSD              0             x 10-6  
       SOPERT               IPERSO         OFF         [  0]    ***   
       SPHERICAL            IDFGHI         ON          [  1]    ***   
       SPINORBIT            ISOCAL         OFF         [  0]    ***   
       SPINROTATIO          ISRCON         OFF         [  0]    ***   
       SPIN_FLIP            ISPFLP         OFF         [  0]    ***   
       SPIN_ORBIT           ISPORB         OFF         [  0]    ***   
       SPIN_SCAL            ISCSMP         OFF         [  0]    ***   
       STEEPSCALE           ISTPSC              1000          x 10-3  
       SUBGROUP             ISUBGP         DEFAULT     [  0]    ***   
       SUBGRPAXIS           ISBXYZ         X           [  0]    ***   
       SYMMETRY             ISYM           ON          [  0]    ***   
       SYM_CHECK            ISYMCK         OVERRIDE    [  1]    ***   
       T3_EXTRAPOL          IT3EXT         OFF         [  0]    ***   
       T4_EXTRAPOL          IT4EXP         OFF         [  0]    ***   
       TAMP_SUM             IEVERY              5               ***   
       TESTSUITE            ITESTS         OFF         [  0]    ***   
       THERMOCH             ITHERM         OFF         [  0]    ***   
       TOL_CHOLESK          ITOLCH          10D-  4             ***   
       TRANGRAD             IRESRM         OFF         [  0]    ***   
       TRANS_INV            ITRAIN         IGNORE      [  1]    ***   
       TREAT_PERT           ITREAT         SIMULTANEOUS[  0]    ***   
       TRIP_ALGORI          ITRALG         NORMAL      [  0]    ***   
       UIJ_THRESHO          IUIJTH              1               ***   
       UNITS                IUNITS         ANGSTROM    [  0]    ***   
       UNOS                 IUNOS          OFF         [  0]    ***   
       UPDATE_HESS          IHUPDT         ON          [  1]    ***   
       VIBPHASE             ISETPH         STANDARD    [  0]    ***   
       VIBRATION            IVIB           ANALYTIC    [  1]    ***   
       VIB_ALGORIT          IGEALG         STANDARD    [  0]    ***   
       VNATORB              IVNORB         OFF         [  0]    ***   
       VTRAN                IVTRAN         FULL/PARTIAL[  0]    ***   
       XFIELD               IXEFLD              0             x 10-6  
       XFORM_TOL            IXFTOL          10D- 11             ***   
       YFIELD               IYEFLD              0             x 10-6  
       ZFIELD               IZEFLD              0             x 10-6  
       ZSCALE_EXP           IZEXPS         OFF         [  0]    ***   
    -------------------------------------------------------------------
   3 entries found in Z-matrix 
   Job Title : Hypochlorous acid DBOC calculation                                              
   There are  3 unique internal coordinates.
   Of these,  0 will be optimized.
   User supplied Z-matrix: 
--------------------------------------------------------------------------------
       SYMBOL    BOND      LENGTH    ANGLE     ANGLE     DIHED     ANGLE
                  TO      (ANGST)    WRT      (DEG)      WRT      (DEG)
--------------------------------------------------------------------------------
        O    
        H          1         ROH  
        CL         1         ROCL       2        A    
                  *Initial values for internal coordinates* 
                      Name             Value
                        ROH             1.4500000000
                        ROCL            1.6830000000
                        A             107.0000000000
--------------------------------------------------------------------------------
   Rotational constants (in cm-1): 
          0.4755353048             0.5002745074             9.6162432478
   Rotational constants (in MHz): 
      14256.1917857790         14997.8545265778        288287.7603852719
********************************************************************************
   The full molecular point group is C s .
   The largest Abelian subgroup of the full molecular point group is C s .
   The computational point group is C s .
********************************************************************************
--------------------------------------------------------------------------------
   Analysis of internal coordinates specified by Z-matrix 
--------------------------------------------------------------------------------
   *The nuclear repulsion energy is   49.247982274344373 a.u.
   *There are   3 degrees of freedom within the tot. symm. molecular subspace.
   *Z-matrix requests optimization of   0 coordinates.
   *The optimization is constrained.
   *The following   3 parameters can have non-zero 
    derivatives within the totally symmetric subspace:
             A    [ 3]  ROH  [ 1]  ROCL [ 2]
   *The following   0 parameters are to be optimized:

   *The following coordinates must be varied in an  unconstrained optimization.
             A    [ 3]  ROH  [ 1]  ROCL [ 2]
--------------------------------------------------------------------------------


 ----------------------------------------------------------------
         Coordinates used in calculation (QCOMP) 
 ----------------------------------------------------------------
 Z-matrix   Atomic            Coordinates (in bohr)
  Symbol    Number           X              Y              Z
 ----------------------------------------------------------------
     O         8        -2.11603901     0.19490977     0.00000000
     H         1        -3.09320247    -2.36503525     0.00000000
     CL       17         1.05703411    -0.02099078     0.00000000
 ----------------------------------------------------------------
 
   Interatomic distance matrix (Angstroms) 
 
                 O             H             CL   
                [ 1]        [ 2]        [ 3]
  O    [ 1]     0.00000
  H    [ 2]     1.45000     0.00000
  CL   [ 3]     1.68300     2.52229     0.00000
 rotcon2
   Rotational constants (in cm-1): 
          9.6162432478             0.5002745074             0.4755353048
   Rotational constants (in MHz): 
     288287.7603852717         14997.8545265778         14256.1917857790
  ECPDATA file not present.   Using default ECPDATA. 
  @GTFLGS-I, Hessian will be transformed to curvilinear coordinates.
  There are  157 basis functions.
 @CHECKOUT-I, Total execution time (CPU/WALL):        0.19/       0.25 seconds.
--executable xjoda finished with status     0 in        0.30 seconds (walltime).
 --invoking executable--
/home/asmola/.local/bin/xvmol
 SERIAL VERSION OF MOLECULE STARTED
********************************************************************************
                    INPUT FROM MOL FILE
********************************************************************************
INTGRL        1    0    1    0    0    0    0    0    0                         
         *** CFOUR Program System (Release V0.1) ***                            
Hypochlorous acid DBOC calculation                                              
    3    1 Z          0.10E-08              0    0                              
   9999.00      3.00                                                            
          8.00000000    1    4    1    1    1    1                              
O #1  -2.116039009000261   0.194909769638157   0.000000000000000                
   13    7                                                                      
   15330.0000000000       5.080000000000000E-004 -1.150000000000000E-004        
  0.000000000000000E+000  0.000000000000000E+000  0.000000000000000E+000        
  0.000000000000000E+000  0.000000000000000E+000                                
   2299.00000000000       3.929000000000000E-003 -8.950000000000000E-004        
  0.000000000000000E+000  0.000000000000000E+000  0.000000000000000E+000        
  0.000000000000000E+000  0.000000000000000E+000                                
   522.400000000000       2.024300000000000E-002 -4.636000000000000E-003        
  0.000000000000000E+000  0.000000000000000E+000  0.000000000000000E+000        
  0.000000000000000E+000  0.000000000000000E+000                                
   147.300000000000       7.918100000000000E-002 -1.872400000000000E-002        
  0.000000000000000E+000  0.000000000000000E+000  0.000000000000000E+000        
  0.000000000000000E+000  0.000000000000000E+000                                
   47.5500000000000       0.230687000000000      -5.846300000000000E-002        
  0.000000000000000E+000  0.000000000000000E+000  0.000000000000000E+000        
  0.000000000000000E+000  0.000000000000000E+000                                
   16.7600000000000       0.433118000000000      -0.136463000000000             
  0.000000000000000E+000  0.000000000000000E+000  0.000000000000000E+000        
  0.000000000000000E+000  0.000000000000000E+000                                
   6.20700000000000       0.350260000000000      -0.175740000000000             
  0.000000000000000E+000  0.000000000000000E+000  0.000000000000000E+000        
  0.000000000000000E+000  0.000000000000000E+000                                
   1.75200000000000       4.272800000000000E-002  0.160934000000000             
   1.00000000000000       0.000000000000000E+000  0.000000000000000E+000        
  0.000000000000000E+000  0.000000000000000E+000                                
  0.688200000000000      -8.154000000000000E-003  0.603418000000000             
  0.000000000000000E+000  0.000000000000000E+000  0.000000000000000E+000        
  0.000000000000000E+000  0.000000000000000E+000                                
  0.238400000000000       2.381000000000000E-003  0.378765000000000             
  0.000000000000000E+000   1.00000000000000       0.000000000000000E+000        
  0.000000000000000E+000  0.000000000000000E+000                                
   7.84500000000000       0.000000000000000E+000  0.000000000000000E+000        
  0.000000000000000E+000  0.000000000000000E+000   1.00000000000000             
  0.000000000000000E+000  0.000000000000000E+000                                
   21.0320000000000       0.000000000000000E+000  0.000000000000000E+000        
  0.000000000000000E+000  0.000000000000000E+000  0.000000000000000E+000        
   1.00000000000000       0.000000000000000E+000                                
  7.376000000000001E-002  0.000000000000000E+000  0.000000000000000E+000        
  0.000000000000000E+000  0.000000000000000E+000  0.000000000000000E+000        
  0.000000000000000E+000   1.00000000000000                                     
    8    6                                                                      
   34.4600000000000       1.592800000000000E-002  0.000000000000000E+000        
  0.000000000000000E+000  0.000000000000000E+000  0.000000000000000E+000        
  0.000000000000000E+000                                                        
   7.74900000000000       9.974000000000000E-002  0.000000000000000E+000        
  0.000000000000000E+000  0.000000000000000E+000  0.000000000000000E+000        
  0.000000000000000E+000                                                        
   2.28000000000000       0.310492000000000       0.000000000000000E+000        
  0.000000000000000E+000  0.000000000000000E+000  0.000000000000000E+000        
  0.000000000000000E+000                                                        
  0.715600000000000       0.491026000000000        1.00000000000000             
  0.000000000000000E+000  0.000000000000000E+000  0.000000000000000E+000        
  0.000000000000000E+000                                                        
  0.214000000000000       0.336337000000000       0.000000000000000E+000        
   1.00000000000000       0.000000000000000E+000  0.000000000000000E+000        
  0.000000000000000E+000                                                        
   15.1590000000000       0.000000000000000E+000  0.000000000000000E+000        
  0.000000000000000E+000   1.00000000000000       0.000000000000000E+000        
  0.000000000000000E+000                                                        
   57.4370000000000       0.000000000000000E+000  0.000000000000000E+000        
  0.000000000000000E+000  0.000000000000000E+000   1.00000000000000             
  0.000000000000000E+000                                                        
  5.974000000000000E-002  0.000000000000000E+000  0.000000000000000E+000        
  0.000000000000000E+000  0.000000000000000E+000  0.000000000000000E+000        
   1.00000000000000                                                             
    4    4                                                                      
   2.31400000000000        1.00000000000000       0.000000000000000E+000        
  0.000000000000000E+000  0.000000000000000E+000                                
  0.645000000000000       0.000000000000000E+000   1.00000000000000             
  0.000000000000000E+000  0.000000000000000E+000                                
   15.8580000000000       0.000000000000000E+000  0.000000000000000E+000        
   1.00000000000000       0.000000000000000E+000                                
  0.214000000000000       0.000000000000000E+000  0.000000000000000E+000        
  0.000000000000000E+000   1.00000000000000                                     
    2    2                                                                      
   1.42800000000000        1.00000000000000       0.000000000000000E+000        
  0.500000000000000       0.000000000000000E+000   1.00000000000000             
          1.00000000    1    3    1    1    1                                   
H #2  -3.093202467060426  -2.365035253240269   0.000000000000000                
    6    4                                                                      
   33.8700000000000       6.068000000000000E-003  0.000000000000000E+000        
  0.000000000000000E+000  0.000000000000000E+000                                
   5.09500000000000       4.530800000000000E-002  0.000000000000000E+000        
  0.000000000000000E+000  0.000000000000000E+000                                
   1.15900000000000       0.202822000000000       0.000000000000000E+000        
  0.000000000000000E+000  0.000000000000000E+000                                
  0.325800000000000       0.503903000000000        1.00000000000000             
  0.000000000000000E+000  0.000000000000000E+000                                
  0.102700000000000       0.383421000000000       0.000000000000000E+000        
   1.00000000000000       0.000000000000000E+000                                
  2.526000000000000E-002  0.000000000000000E+000  0.000000000000000E+000        
  0.000000000000000E+000   1.00000000000000                                     
    3    3                                                                      
   1.40700000000000        1.00000000000000       0.000000000000000E+000        
  0.000000000000000E+000                                                        
  0.388000000000000       0.000000000000000E+000   1.00000000000000             
  0.000000000000000E+000                                                        
  0.102000000000000       0.000000000000000E+000  0.000000000000000E+000        
   1.00000000000000                                                             
    2    2                                                                      
   1.05700000000000        1.00000000000000       0.000000000000000E+000        
  0.247000000000000       0.000000000000000E+000   1.00000000000000             
         17.00000000    1    4    1    1    1    1                              
CL#3   1.057034112106815  -0.020990776989414   0.000000000000000                
   18    8                                                                      
   456100.000000000       4.930000000000000E-005 -1.380000000000000E-005        
  4.200000000000000E-006  0.000000000000000E+000  0.000000000000000E+000        
  0.000000000000000E+000  0.000000000000000E+000  0.000000000000000E+000        
   68330.0000000000       3.830000000000000E-004 -1.073000000000000E-004        
  3.240000000000000E-005  0.000000000000000E+000  0.000000000000000E+000        
  0.000000000000000E+000  0.000000000000000E+000  0.000000000000000E+000        
   15550.0000000000       2.008500000000000E-003 -5.651000000000000E-004        
  1.711000000000000E-004  0.000000000000000E+000  0.000000000000000E+000        
  0.000000000000000E+000  0.000000000000000E+000  0.000000000000000E+000        
   4405.00000000000       8.385600000000000E-003 -2.361400000000000E-003        
  7.142000000000000E-004  0.000000000000000E+000  0.000000000000000E+000        
  0.000000000000000E+000  0.000000000000000E+000  0.000000000000000E+000        
   1439.00000000000       2.947030000000000E-002 -8.458900000000000E-003        
  2.567000000000000E-003  0.000000000000000E+000  0.000000000000000E+000        
  0.000000000000000E+000  0.000000000000000E+000  0.000000000000000E+000        
   520.400000000000       8.783249999999999E-002 -2.596380000000000E-002        
  7.885500000000000E-003  0.000000000000000E+000  0.000000000000000E+000        
  0.000000000000000E+000  0.000000000000000E+000  0.000000000000000E+000        
   203.100000000000       0.211473000000000      -6.863619999999999E-002        
  2.108670000000000E-002  0.000000000000000E+000  0.000000000000000E+000        
  0.000000000000000E+000  0.000000000000000E+000  0.000000000000000E+000        
   83.9600000000000       0.365364000000000      -0.141874000000000             
  4.422640000000000E-002  0.000000000000000E+000  0.000000000000000E+000        
  0.000000000000000E+000  0.000000000000000E+000  0.000000000000000E+000        
   36.2000000000000       0.340884000000000      -0.199319000000000             
  6.516700000000000E-002  0.000000000000000E+000  0.000000000000000E+000        
  0.000000000000000E+000  0.000000000000000E+000  0.000000000000000E+000        
   15.8300000000000       0.102133000000000      -1.956620000000000E-002        
  6.030100000000000E-003  0.000000000000000E+000  0.000000000000000E+000        
  0.000000000000000E+000  0.000000000000000E+000  0.000000000000000E+000        
   6.33400000000000       3.116800000000000E-003  0.499741000000000             
 -0.206495000000000       0.000000000000000E+000  0.000000000000000E+000        
  0.000000000000000E+000  0.000000000000000E+000  0.000000000000000E+000        
   2.69400000000000       1.057500000000000E-003  0.563736000000000             
 -0.405871000000000       0.000000000000000E+000  0.000000000000000E+000        
  0.000000000000000E+000  0.000000000000000E+000  0.000000000000000E+000        
  0.976800000000000      -3.780000000000000E-004  7.903250000000001E-002        
  7.595580000000000E-002   1.00000000000000       0.000000000000000E+000        
  0.000000000000000E+000  0.000000000000000E+000  0.000000000000000E+000        
  0.431300000000000       1.561000000000000E-004 -8.350900000000000E-003        
  0.725661000000000       0.000000000000000E+000  0.000000000000000E+000        
  0.000000000000000E+000  0.000000000000000E+000  0.000000000000000E+000        
  0.162500000000000      -5.140000000000000E-005  2.324600000000000E-003        
  0.394423000000000       0.000000000000000E+000   1.00000000000000             
  0.000000000000000E+000  0.000000000000000E+000  0.000000000000000E+000        
   15.0640000000000       0.000000000000000E+000  0.000000000000000E+000        
  0.000000000000000E+000  0.000000000000000E+000  0.000000000000000E+000        
   1.00000000000000       0.000000000000000E+000  0.000000000000000E+000        
   2.87400000000000       0.000000000000000E+000  0.000000000000000E+000        
  0.000000000000000E+000  0.000000000000000E+000  0.000000000000000E+000        
  0.000000000000000E+000   1.00000000000000       0.000000000000000E+000        
  5.910000000000000E-002  0.000000000000000E+000  0.000000000000000E+000        
  0.000000000000000E+000  0.000000000000000E+000  0.000000000000000E+000        
  0.000000000000000E+000  0.000000000000000E+000   1.00000000000000             
   12    7                                                                      
   663.300000000000       2.404500000000000E-003 -6.521000000000000E-004        
  0.000000000000000E+000  0.000000000000000E+000  0.000000000000000E+000        
  0.000000000000000E+000  0.000000000000000E+000                                
   156.800000000000       1.921480000000000E-002 -5.194500000000000E-003        
  0.000000000000000E+000  0.000000000000000E+000  0.000000000000000E+000        
  0.000000000000000E+000  0.000000000000000E+000                                
   49.9800000000000       8.850970000000000E-002 -2.469380000000000E-002        
  0.000000000000000E+000  0.000000000000000E+000  0.000000000000000E+000        
  0.000000000000000E+000  0.000000000000000E+000                                
   18.4200000000000       0.256020000000000      -7.281670000000000E-002        
  0.000000000000000E+000  0.000000000000000E+000  0.000000000000000E+000        
  0.000000000000000E+000  0.000000000000000E+000                                
   7.24000000000000       0.436927000000000      -0.134030000000000             
  0.000000000000000E+000  0.000000000000000E+000  0.000000000000000E+000        
  0.000000000000000E+000  0.000000000000000E+000                                
   2.92200000000000       0.350334000000000      -9.477420000000000E-002        
  0.000000000000000E+000  0.000000000000000E+000  0.000000000000000E+000        
  0.000000000000000E+000  0.000000000000000E+000                                
   1.02200000000000       5.854950000000000E-002  0.262289000000000             
   1.00000000000000       0.000000000000000E+000  0.000000000000000E+000        
  0.000000000000000E+000  0.000000000000000E+000                                
  0.381800000000000      -4.584200000000000E-003  0.564667000000000             
  0.000000000000000E+000  0.000000000000000E+000  0.000000000000000E+000        
  0.000000000000000E+000  0.000000000000000E+000                                
  0.130100000000000       2.269700000000000E-003  0.341250000000000             
  0.000000000000000E+000   1.00000000000000       0.000000000000000E+000        
  0.000000000000000E+000  0.000000000000000E+000                                
   9.48000000000000       0.000000000000000E+000  0.000000000000000E+000        
  0.000000000000000E+000  0.000000000000000E+000   1.00000000000000             
  0.000000000000000E+000  0.000000000000000E+000                                
   3.66800000000000       0.000000000000000E+000  0.000000000000000E+000        
  0.000000000000000E+000  0.000000000000000E+000  0.000000000000000E+000        
   1.00000000000000       0.000000000000000E+000                                
  4.190000000000000E-002  0.000000000000000E+000  0.000000000000000E+000        
  0.000000000000000E+000  0.000000000000000E+000  0.000000000000000E+000        
  0.000000000000000E+000   1.00000000000000                                     
    5    5                                                                      
   1.04600000000000        1.00000000000000       0.000000000000000E+000        
  0.000000000000000E+000  0.000000000000000E+000  0.000000000000000E+000        
  0.344000000000000       0.000000000000000E+000   1.00000000000000             
  0.000000000000000E+000  0.000000000000000E+000  0.000000000000000E+000        
   17.9570000000000       0.000000000000000E+000  0.000000000000000E+000        
   1.00000000000000       0.000000000000000E+000  0.000000000000000E+000        
   5.76000000000000       0.000000000000000E+000  0.000000000000000E+000        
  0.000000000000000E+000   1.00000000000000       0.000000000000000E+000        
  0.135000000000000       0.000000000000000E+000  0.000000000000000E+000        
  0.000000000000000E+000  0.000000000000000E+000   1.00000000000000             
    3    3                                                                      
  0.706000000000000        1.00000000000000       0.000000000000000E+000        
  0.000000000000000E+000                                                        
   11.7790000000000       0.000000000000000E+000   1.00000000000000             
  0.000000000000000E+000                                                        
  0.312000000000000       0.000000000000000E+000  0.000000000000000E+000        
   1.00000000000000                                                             
FINISH                                                                          
 
********************************************************************************
 ONE- AND TWO-ELECTRON INTEGRALS OVER SYMMETRY-ADAPTED AOS ARE CALCULATED.

  SPHERICAL HARMONICS ARE USED.
  
  INTEGRALS LESS THAN  0.10E-13 ARE NEGLECTED.

  NUCLEAR REPULSION ENERGY :   49.2479822743 A.U.
  @MOLECU-I, ONE ELECTRON INTEGRALS (CPU/WALL):        0.04/       0.05 SECONDS.
  @TWOEL-I,   14195320 INTEGRALS OF SYMMETRY TYPE  I I I I
  @TWOEL-I,   13374613 INTEGRALS OF SYMMETRY TYPE  I J I J
  @TWOEL-I,    6917737 INTEGRALS OF SYMMETRY TYPE  I I J J
  @TWOEL-I, TOTAL NUMBER OF 2-E INTEGRALS   34487670.
  @MOLECU-I, TWO ELECTRON INTEGRALS (CPU/WALL):       57.82/       8.86 SECONDS.
 @CHECKOUT-I, Total execution time (CPU/WALL):       57.87/       8.93 seconds.

Running with 14 threads/proc

--executable xvmol finished with status     0 in        8.97 seconds (walltime).
 --invoking executable--
/home/asmola/.local/bin/xvmol2ja
 @GETMEM-I,  Allocated    3814 MB of main memory.
 @CHECKOUT-I, Total execution time (CPU/WALL):        0.08/       0.02 seconds.
--executable xvmol2ja finished with status     0 in        0.05 seconds (walltime).
 --invoking executable--
/home/asmola/.local/bin/xvscf
  There are  157 functions in the AO basis.

  There are 2 irreducible representations.

       Irrep        # of functions
         1                104
         2                 53


  Parameters for SCF calculation: 
        SCF reference function:  RHF  
  Maximum number of iterations:  150
     Full symmetry point group: C s 
     Computational point group: C s 
        Initial density matrix: MOREAD                 
     SCF convergence tolerance: 10**(-10)
  DIIS convergence acceleration:  ON
          Latest start for DIIS:   8
                     DIIS order:   6

  Memory information:    1209746 words required.
  Fock matrices are constructed from AO integral file.
 @GETMEM-I,  Allocated       9 MB of main memory.
  Initialization and symmetry analysis required      0.001 seconds.

  @INITGES-I, Occupancies from core Hamiltonian:

          Alpha population by irrep:  10    3
           Beta population by irrep:  10    3


 total no. of electrons in initial guess :  0.000000000000000E+000
  --------------------------------------------------------------------
  Iteration         Total Energy            Largest Density Difference
  --------------------------------------------------------------------
       0            49.247982274344380              0.0000000000D+00
   current occupation vector 
    10  3
    10  3
       1          -366.162937885394797              0.1325955380D+02
   current occupation vector 
    10  3
    10  3
       2          -342.384509707969528              0.1323158383D+02
   current occupation vector 
    10  3
    10  3
       3          -422.125010043113093              0.1070300145D+02
   current occupation vector 
    10  3
    10  3
       4          -339.988986758533031              0.1071059485D+02
   current occupation vector 
    10  3
    10  3
       5          -421.926011053982734              0.1066217300D+02
   current occupation vector 
    10  3
    10  3
       6          -339.918460157061645              0.1066234432D+02
   current occupation vector 
    10  3
    10  3
       7          -421.919591623005488              0.1066078257D+02
   current occupation vector 
    10  3
    10  3
       8          -339.916458951538004              0.1066078741D+02
   current occupation vector 
    10  3
    10  3
       9          -444.991119891506742              0.8450552592D+01
   current occupation vector 
    10  3
    10  3
      10          -465.291244126915444              0.2229505057D+01
   current occupation vector 
    10  3
    10  3
      11          -473.000830149104786              0.9253371898D+00
   current occupation vector 
    10  3
    10  3
      12          -473.096526857018375              0.4935916172D-01
   current occupation vector 
    10  3
    10  3
      13          -482.283440031304281              0.1204324536D+01
   current occupation vector 
    10  3
    10  3
      14          -485.700229859917613              0.4304351291D+00
   current occupation vector 
    10  3
    10  3
      15          -508.726848888248355              0.7418052374D+01
   current occupation vector 
    10  3
    10  3
      16          -521.524978000867804              0.7417543956D+01
   current occupation vector 
    11  2
    11  2
      17          -527.936650360048702              0.3859500998D+01
   current occupation vector 
    11  2
    11  2
      18          -532.169894418138028              0.1704959367D+01
   current occupation vector 
    11  2
    11  2
      19          -534.615242703451827              0.2276759256D+01
   current occupation vector 
    10  3
    10  3
      20          -534.772530570750973              0.5942037708D+00
   current occupation vector 
    10  3
    10  3
      21          -534.809629091156239              0.2047602418D+00
   current occupation vector 
    10  3
    10  3
      22          -534.816491021188767              0.1006815575D+00
   current occupation vector 
    10  3
    10  3
      23          -534.817204168746912              0.3249507662D-01
   current occupation vector 
    10  3
    10  3
      24          -534.817296656088502              0.1497896726D-01
   current occupation vector 
    10  3
    10  3
      25          -534.817314616419480              0.6008619224D-02
   current occupation vector 
    10  3
    10  3
      26          -534.817316448864176              0.1927415606D-02
   current occupation vector 
    10  3
    10  3
      27          -534.817316612186232              0.4372950452D-03
   current occupation vector 
    10  3
    10  3
      28          -534.817316630013465              0.1348924002D-03
   current occupation vector 
    10  3
    10  3
      29          -534.817316632053121              0.4227273541D-04
   current occupation vector 
    10  3
    10  3
      30          -534.817316632717507              0.3414752431D-04
   current occupation vector 
    10  3
    10  3
      31          -534.817316632821871              0.9956118367D-05
   current occupation vector 
    10  3
    10  3
      32          -534.817316632841084              0.6225707703D-05
   current occupation vector 
    10  3
    10  3
      33          -534.817316632839834              0.1153514815D-05
   current occupation vector 
    10  3
    10  3
      34          -534.817316632840857              0.4399506304D-06
   current occupation vector 
    10  3
    10  3
      35          -534.817316632839493              0.1566205917D-06
   current occupation vector 
    10  3
    10  3
      36          -534.817316632840516              0.3892815549D-07
   current occupation vector 
    10  3
    10  3
      37          -534.817316632839834              0.2828654944D-07
   current occupation vector 
    10  3
    10  3
      38          -534.817316632843244              0.9271398316D-08
   current occupation vector 
    10  3
    10  3
      39          -534.817316632845746              0.5573412919D-08
   current occupation vector 
    10  3
    10  3
      40          -534.817316632837560              0.3145547420D-08
   current occupation vector 
    10  3
    10  3
      41          -534.817316632845518              0.3277720317D-09
   current occupation vector 
    10  3
    10  3
      42          -534.817316632843472              0.1524647075D-09
   current occupation vector 
    10  3
    10  3

  SCF has converged.

 Density matrix saved to file den.dat
 total electron number:   26.0000000000002     
     E(SCF)=      -534.817316632841653              0.5420774940D-10

  Eigenvector printing suppressed.

 @PUTMOS-I, Writing converged MOs to NEWMOS. 
 @PUTMOS-I, Symmetry   1 Full Blocks 26 Partial Blocksize   0
 @PUTMOS-I, Symmetry   2 Full Blocks 13 Partial Blocksize   1
 @PUTFOCK-I, Writing converged Fock matrix to NEWFOCK. 
 @PUTFOCK-I, Symmetry   1 Full Blocks 26 Partial Blocksize   0
 @PUTFOCK-I, Symmetry   2 Full Blocks 13 Partial Blocksize   1


 
  ORBITAL EIGENVALUES (ALPHA)  (1H = 27.2113834 eV)

       MO #        E(hartree)               E(eV)           FULLSYM    COMPSYM
       ----   --------------------   --------------------   -------   ---------
    1     1        -104.8830080793       -2854.0117449903     A'        A'  (1)
    2     2         -20.6636951286        -562.2877306052     A'        A'  (1)
    3     3         -10.6029276172        -288.5203285533     A'        A'  (1)
    4     4          -8.0696161650        -219.5854193556     A'        A'  (1)
    5     5          -8.0673940364        -219.5249521636     A'        A'  (1)
    6   105          -8.0672214462        -219.5202557446     A''       A'' (2)
    7     6          -1.3579199726         -36.9508809998     A'        A'  (1)
    8     7          -1.0309432002         -28.0533906831     A'        A'  (1)
    9     8          -0.6179006625         -16.8139318298     A'        A'  (1)
   10   106          -0.6031743688         -16.4132090076     A''       A'' (2)
   11     9          -0.5879639157         -15.9993115349     A'        A'  (1)
   12    10          -0.4411901897         -12.0053954055     A'        A'  (1)
   13   107          -0.4342048749         -11.8153153239     A''       A'' (2)
  +++++++++++++++++++++++++++++++++++++++++++++++++++++++++++++++++++++++++++++
   14    11           0.0007441472           0.0202492755     A'        A'  (1)
   15    12           0.0587122686           1.5976420509     A'        A'  (1)
   16    13           0.0944850546           2.5710690468     A'        A'  (1)
   17   108           0.1175939523           3.1998941216     A''       A'' (2)
   18    14           0.1196353235           3.2554426562     A'        A'  (1)
   19    15           0.1526225901           4.1530718143     A'        A'  (1)
   20    16           0.1651660769           4.4943974442     A'        A'  (1)
   21    17           0.1759896754           4.7889225329     A'        A'  (1)
   22   109           0.1926185322           5.2414167309     A''       A'' (2)
   23    18           0.2218669204           6.0373058340     A'        A'  (1)
   24   110           0.2499160114           6.8005604034     A''       A'' (2)
   25    19           0.2874129031           7.8209027016     A'        A'  (1)
   26    20           0.3268495584           8.8940286488     A'        A'  (1)
   27    21           0.3334768811           9.0743672654     A'        A'  (1)
   28   111           0.3773143264          10.2672447977     A''       A'' (2)
   29    22           0.3894405412          10.5972158788     A'        A'  (1)
   30   112           0.4249566378          11.5636580001     A''       A'' (2)
   31    23           0.4586443043          12.4803460076     A'        A'  (1)
   32    24           0.5085064307          13.8371634469     A'        A'  (1)
   33    25           0.5916665726          16.1000659512     A'        A'  (1)
   34   113           0.6173635760          16.7993169638     A''       A'' (2)
   35    26           0.6613992297          17.9975880185     A'        A'  (1)
   36    27           0.6791264721          18.4799708105     A'        A'  (1)
   37   114           0.7475947111          20.3430863107     A''       A'' (2)
   38    28           0.7526438546          20.4804804909     A'        A'  (1)
   39    29           0.7651795006          20.8215927617     A'        A'  (1)
   40   115           0.7734678973          21.0471315007     A''       A'' (2)
   41    30           0.8208666489          22.3369171036     A'        A'  (1)
   42    31           0.8408710855          22.8812654988     A'        A'  (1)
   43   116           0.8468971789          23.0452438360     A''       A'' (2)
   44   117           0.8975651627          24.4239897679     A''       A'' (2)
   45    32           0.9012976285          24.5255553274     A'        A'  (1)
   46    33           0.9424807511          25.6462050654     A'        A'  (1)
   47   118           0.9438166932          25.6825578986     A''       A'' (2)
   48   119           0.9506311745          25.8679893609     A''       A'' (2)
   49    34           0.9646573367          26.2496606394     A'        A'  (1)
   50    35           1.0146983284          27.6113452504     A'        A'  (1)
   51    36           1.0289301439          27.9986126383     A'        A'  (1)
   52    37           1.1055750061          30.0842253686     A'        A'  (1)
   53   120           1.1172200359          30.4011027403     A''       A'' (2)
   54    38           1.1248531763          30.6088110488     A'        A'  (1)
   55   121           1.1761963163          32.0059289169     A''       A'' (2)
   56    39           1.2248220601          33.3291026747     A'        A'  (1)
   57    40           1.2628106242          34.3628240574     A'        A'  (1)
   58   122           1.3386468000          36.4264313125     A''       A'' (2)
   59   123           1.4002138421          38.1017556993     A''       A'' (2)
   60    41           1.4555323754          39.6070495170     A'        A'  (1)
   61    42           1.4975111062          40.7493488576     A'        A'  (1)
   62   124           1.5249827827          41.4968911777     A''       A'' (2)
   63    43           1.5624580203          42.5166442363     A'        A'  (1)
   64    44           1.6263403985          44.2549721230     A'        A'  (1)
   65    45           1.7349844940          47.2113282600     A'        A'  (1)
   66    46           1.8243282957          49.6424967021     A'        A'  (1)
   67   125           2.1671874970          58.9721698815     A''       A'' (2)
   68   126           2.2170964012          60.3302602078     A''       A'' (2)
   69    47           2.2198845750          60.4061302747     A'        A'  (1)
   70    48           2.2728065996          61.8462117756     A'        A'  (1)
   71    49           2.3064753991          62.7623863865     A'        A'  (1)
   72   127           2.3096694416          62.8493007027     A''       A'' (2)
   73    50           2.3246030872          63.2556658586     A'        A'  (1)
   74    51           2.3712022592          64.5236937938     A'        A'  (1)
   75    52           2.4361155432          66.2900740524     A'        A'  (1)
   76   128           2.4361666160          66.2914638149     A''       A'' (2)
   77   129           2.4574224994          66.8698658057     A''       A'' (2)
   78   130           2.4804208505          67.4956827567     A''       A'' (2)
   79    53           2.5028875765          68.1070334504     A'        A'  (1)
   80   131           2.5630771801          69.7448758323     A''       A'' (2)
   81    54           2.6174017409          71.2231222828     A'        A'  (1)
   82    55           2.7376764129          74.4959624965     A'        A'  (1)
   83    56           2.8783280786          78.3232888983     A'        A'  (1)
   84   132           2.9012948898          78.9482476022     A''       A'' (2)
   85    57           2.9765763433          80.9967600980     A'        A'  (1)
   86    58           3.0568834580          83.1820277836     A'        A'  (1)
   87   133           3.0648689312          83.3993235574     A''       A'' (2)
   88   134           3.1133267539          84.7179279493     A''       A'' (2)
   89    59           3.1302497149          85.1784251307     A'        A'  (1)
   90    60           3.2115764347          87.3914376833     A'        A'  (1)
   91    61           3.2376499001          88.1009327471     A'        A'  (1)
   92   135           3.3615567732          91.4726101756     A''       A'' (2)
   93    62           3.3789057763          91.9447005519     A'        A'  (1)
   94    63           3.4237402045          93.1647073666     A'        A'  (1)
   95    64           3.8018012025         103.4522701325     A'        A'  (1)
   96   136           3.8549241158         104.8978180928     A''       A'' (2)
   97    65           3.9209502404         106.6944802841     A'        A'  (1)
   98    66           3.9837257294         108.4026881840     A'        A'  (1)
   99   137           4.0479379960         110.1499927888     A''       A'' (2)
  100   138           4.1810101914         113.7710713175     A''       A'' (2)
  101   139           4.2810568123         116.4934782772     A''       A'' (2)
  102    67           4.3082054269         117.2322296372     A'        A'  (1)
  103    68           4.3266278604         117.7335295398     A'        A'  (1)
  104    69           4.6740800382         127.1881839620     A'        A'  (1)
  105    70           5.0987123616         138.7430169190     A'        A'  (1)
  106    71           5.4479242905         148.2455566021     A'        A'  (1)
  107    72           5.8730918467         159.8149539850     A'        A'  (1)
  108   140           6.5942486053         179.4386270338     A''       A'' (2)
  109    73           6.6476818566         180.8926197224     A'        A'  (1)
  110   141           6.6920902635         182.1010339080     A''       A'' (2)
  111    74           6.7142887181         182.7050845657     A'        A'  (1)
  112   142           6.7747094441         184.3492161065     A''       A'' (2)
  113    75           6.8978607814         187.7003343612     A'        A'  (1)
  114    76           7.0231020558         191.1083226972     A'        A'  (1)
  115   143           7.0965155803         193.1060062601     A''       A'' (2)
  116    77           7.1511823068         194.5935635141     A'        A'  (1)
  117   144           7.1788568690         195.3466266359     A''       A'' (2)
  118    78           7.6030595694         206.8897689550     A'        A'  (1)
  119    79           7.7764718195         211.6085561793     A'        A'  (1)
  120   145          10.3557562233         281.7944529886     A''       A'' (2)
  121    80          10.3589993260         281.8827022989     A'        A'  (1)
  122   146          10.3941615442         282.8395149017     A''       A'' (2)
  123    81          10.4407903771         284.1083499504     A'        A'  (1)
  124    82          10.6051023282         288.5795054479     A'        A'  (1)
  125   147          12.6855608211         345.1916591463     A''       A'' (2)
  126    83          12.7328835220         346.4793753035     A'        A'  (1)
  127    84          13.2068496843         359.3766502656     A'        A'  (1)
  128    85          18.2657849113         497.0372763241     A'        A'  (1)
  129   148          26.0545037409         708.9790905910     A''       A'' (2)
  130    86          26.3721240522         717.6219786559     A'        A'  (1)
  131    87          26.5930632018         723.6340385658     A'        A'  (1)
  132    88          28.7460199240         782.2189693766     A'        A'  (1)
  133   149          36.9023770153        1004.1647293357     A''       A'' (2)
  134   150          36.9035365706        1004.1962824395     A''       A'' (2)
  135    89          36.9035630658        1004.1970034097     A'        A'  (1)
  136    90          36.9059859219        1004.2629326747     A'        A'  (1)
  137   151          36.9117144961        1004.4188151043     A''       A'' (2)
  138    91          36.9118262060        1004.4218548866     A'        A'  (1)
  139    92          36.9160595062        1004.5370488394     A'        A'  (1)
  140   152          43.8761167001        1193.9298336290     A''       A'' (2)
  141    93          43.8861104477        1194.2017773277     A'        A'  (1)
  142   153          43.9020038321        1194.6342583028     A''       A'' (2)
  143    94          44.0244694952        1197.9667184156     A'        A'  (1)
  144    95          44.0800342072        1199.4787110977     A'        A'  (1)
  145   154          46.4896177617        1265.0468130321     A''       A'' (2)
  146    96          46.4914482853        1265.0966241115     A'        A'  (1)
  147   155          46.5144789290        1265.7233197896     A''       A'' (2)
  148    97          46.5391781426        1266.3954195598     A'        A'  (1)
  149    98          46.6218862516        1268.6460216231     A'        A'  (1)
  150   156          55.0250611152        1497.3080346133     A''       A'' (2)
  151    99          55.0768381369        1498.7169590017     A'        A'  (1)
  152   100          55.6321304820        1513.8272319059     A'        A'  (1)
  153   101         103.8272082067        2825.2819698635     A'        A'  (1)
  154   157         138.2158223603        3761.0437341914     A''       A'' (2)
  155   102         138.4305606996        3766.8870614739     A'        A'  (1)
  156   103         138.5967150777        3771.4083519607     A'        A'  (1)
  157   104         149.4564620171        4066.9170895539     A'        A'  (1)


  VSCF finished.

 @CHECKOUT-I, Total execution time (CPU/WALL):       71.30/      14.63 seconds.
--executable xvscf finished with status     0 in       14.66 seconds (walltime).
 --invoking executable--
/home/asmola/.local/bin/xvtran
 @GETMEM-I,  Allocated    3814 MB of main memory.
  Full RHF integral transformation
  Transformation of IIII integrals :
  1 pass through the AO integral file was required.
    14195320 AO integrals were read.
    15933126 MO integrals were written to HF2.
  Transformation of IIJJ integrals :
  1 pass through the AO integral file was required.
     6917737 AO integrals were read.
     7813260 MO integrals were written to HF2.
  Transformation of IJIJ integrals :
  1 pass through the AO integral file was required.
    13374613 AO integrals were read.
    15193828 MO integrals were written to HF2.
  Summary of active molecular orbitals: 
------------------------------------------------------------------------
 
  Index      Eigenvalue    Symmetry    Index      Eigenvalue    Symmetry
------------------------------------------------------------------------
     1      -104.8830081        1        80         7.1511823        1
     2       -20.6636951        1        81         7.6030596        1
     3       -10.6029276        1        82         7.7764718        1
     4        -8.0696162        1        83        10.3589993        1
     5        -8.0673940        1        84        10.4407904        1
     6        -1.3579200        1        85        10.6051023        1
     7        -1.0309432        1        86        12.7328835        1
     8        -0.6179007        1        87        13.2068497        1
     9        -0.5879639        1        88        18.2657849        1
    10        -0.4411902        1        89        26.3721241        1
    11        -8.0672214        2        90        26.5930632        1
    12        -0.6031744        2        91        28.7460199        1
    13        -0.4342049        2        92        36.9035631        1
    14         0.0007441        1        93        36.9059859        1
    15         0.0587123        1        94        36.9118262        1
    16         0.0944851        1        95        36.9160595        1
    17         0.1196353        1        96        43.8861104        1
    18         0.1526226        1        97        44.0244695        1
    19         0.1651661        1        98        44.0800342        1
    20         0.1759897        1        99        46.4914483        1
    21         0.2218669        1       100        46.5391781        1
    22         0.2874129        1       101        46.6218863        1
    23         0.3268496        1       102        55.0768381        1
    24         0.3334769        1       103        55.6321305        1
    25         0.3894405        1       104       103.8272082        1
    26         0.4586443        1       105       138.4305607        1
    27         0.5085064        1       106       138.5967151        1
    28         0.5916666        1       107       149.4564620        1
    29         0.6613992        1       108         0.1175940        2
    30         0.6791265        1       109         0.1926185        2
    31         0.7526439        1       110         0.2499160        2
    32         0.7651795        1       111         0.3773143        2
    33         0.8208666        1       112         0.4249566        2
    34         0.8408711        1       113         0.6173636        2
    35         0.9012976        1       114         0.7475947        2
    36         0.9424808        1       115         0.7734679        2
    37         0.9646573        1       116         0.8468972        2
    38         1.0146983        1       117         0.8975652        2
    39         1.0289301        1       118         0.9438167        2
    40         1.1055750        1       119         0.9506312        2
    41         1.1248532        1       120         1.1172200        2
    42         1.2248221        1       121         1.1761963        2
    43         1.2628106        1       122         1.3386468        2
    44         1.4555324        1       123         1.4002138        2
    45         1.4975111        1       124         1.5249828        2
    46         1.5624580        1       125         2.1671875        2
    47         1.6263404        1       126         2.2170964        2
    48         1.7349845        1       127         2.3096694        2
    49         1.8243283        1       128         2.4361666        2
    50         2.2198846        1       129         2.4574225        2
    51         2.2728066        1       130         2.4804209        2
    52         2.3064754        1       131         2.5630772        2
    53         2.3246031        1       132         2.9012949        2
    54         2.3712023        1       133         3.0648689        2
    55         2.4361155        1       134         3.1133268        2
    56         2.5028876        1       135         3.3615568        2
    57         2.6174017        1       136         3.8549241        2
    58         2.7376764        1       137         4.0479380        2
    59         2.8783281        1       138         4.1810102        2
    60         2.9765763        1       139         4.2810568        2
    61         3.0568835        1       140         6.5942486        2
    62         3.1302497        1       141         6.6920903        2
    63         3.2115764        1       142         6.7747094        2
    64         3.2376499        1       143         7.0965156        2
    65         3.3789058        1       144         7.1788569        2
    66         3.4237402        1       145        10.3557562        2
    67         3.8018012        1       146        10.3941615        2
    68         3.9209502        1       147        12.6855608        2
    69         3.9837257        1       148        26.0545037        2
    70         4.3082054        1       149        36.9023770        2
    71         4.3266279        1       150        36.9035366        2
    72         4.6740800        1       151        36.9117145        2
    73         5.0987124        1       152        43.8761167        2
    74         5.4479243        1       153        43.9020038        2
    75         5.8730918        1       154        46.4896178        2
    76         6.6476819        1       155        46.5144789        2
    77         6.7142887        1       156        55.0250611        2
    78         6.8978608        1       157       138.2158224        2
    79         7.0231021        1
------------------------------------------------------------------------
  -104.883008079269       -20.6636951286063       -10.6029276171703     
  -8.06961616496178       -8.06739403640771       -1.35791997255899     
  -1.03094320015553      -0.617900662479578      -0.587963915679258     
 -0.441190189745594       -8.06722144617483      -0.603174368840965     
 -0.434204874856898       7.441472274925954E-004  5.871226859213557E-002
  9.448505461741538E-002  0.119635323510644       0.152622590086617     
  0.165166076935965       0.175989675442275       0.221866920371375     
  0.287412903145755       0.326849558438452       0.333476881052587     
  0.389440541226164       0.458644304265350       0.508506430692091     
  0.591666572572366       0.661399229652516       0.679126472141673     
  0.752643854589679       0.765179500639595       0.820866648905468     
  0.840871085546243       0.901297628527281       0.942480751102884     
  0.964657336730449        1.01469832843577        1.02893014392846     
   1.10557500610421        1.12485317629290        1.22482206011969     
   1.26281062422399        1.45553237535970        1.49751110623766     
   1.56245802028097        1.62634039851766        1.73498449402487     
   1.82432829571387        2.21988457502327        2.27280659959360     
   2.30647539905913        2.32460308720023        2.37120225918954     
   2.43611554319023        2.50288757646999        2.61740174087672     
   2.73767641289652        2.87832807861978        2.97657634333933     
   3.05688345795744        3.13024971492886        3.21157643470960     
   3.23764990011886        3.37890577632090        3.42374020449700     
   3.80180120252671        3.92095024041016        3.98372572942994     
   4.30820542689634        4.32662786044738        4.67408003820747     
   5.09871236164372        5.44792429046956        5.87309184673960     
   6.64768185664534        6.71428871807150        6.89786078135209     
   7.02310205578334        7.15118230681616        7.60305956936415     
   7.77647181948638        10.3589993259540        10.4407903771033     
   10.6051023281639        12.7328835219561        13.2068496842998     
   18.2657849113278        26.3721240521687        26.5930632018449     
   28.7460199240206        36.9035630658062        36.9059859218580     
   36.9118262060341        36.9160595061619        43.8861104477234     
   44.0244694952056        44.0800342072158        46.4914482852597     
   46.5391781426232        46.6218862515859        55.0768381368549     
   55.6321304820498        103.827208206678        138.430560699604     
   138.596715077730        149.456462017064       0.117593952301010     
  0.192618532246795       0.249916011378008       0.377314326391266     
  0.424956637819278       0.617363576002129       0.747594711067117     
  0.773467897288241       0.846897178919338       0.897565162668606     
  0.943816693221006       0.950631174485455        1.11722003594703     
   1.17619631631533        1.33864680001771        1.40021384209901     
   1.52498278267329        2.16718749703412        2.21709640119826     
   2.30966944160134        2.43616661602533        2.45742249935330     
   2.48042085051322        2.56307718013074        2.90129488977750     
   3.06486893119153        3.11332675387901        3.36155677316845     
   3.85492411579634        4.04793799600827        4.18101019140165     
   4.28105681231817        6.59424860530260        6.69209026351859     
   6.77470944408011        7.09651558031686        7.17885686899328     
   10.3557562232801        10.3941615442353        12.6855608210735     
   26.0545037409239        36.9023770153388        36.9035365706351     
   36.9117144960838        43.8761167000784        43.9020038320720     
   46.4896177616662        46.5144789290493        55.0250611151679     
   138.215822360262     
 @CHECKOUT-I, Total execution time (CPU/WALL):       34.57/      19.75 seconds.
--executable xvtran finished with status     0 in       19.82 seconds (walltime).
 --invoking executable--
/home/asmola/.local/bin/xintprc
 @GETMEM-I,  Allocated    3814 MB of main memory.
  Processing integrals for CCSD calculation.
  @GMOIAA-I, Processing MO integrals for spin case AA.
  @GMOIAA-I, Generation of integral list completed.
                      TYPE                NUMBER
                      ----               --------
                      PPPP              27524020
                      PPPH               9932000
                      PPHH                900748
                      PHPH                491140
                      PHHH                 89950
                      HHHH                  2356

                     TOTAL              38940214

  @FORMT2-I, Second-order MP correlation energies:
            ------------------------------------------------
            E(SCF)                  =   -534.817316632842 a.u.
            E2(AA)                  =     -0.110201261201 a.u.
            E2(AB)                  =     -0.649134347765 a.u.
            E2(TOT)                 =     -0.869536870168 a.u.
            Total MP2 energy        =   -535.686853503010 a.u.
            ------------------------------------------------
   Largest T2 amplitudes for spin case AB:
       _       _                 _       _                 _       _
   i   j   a   b             i   j   a   b             i   j   a   b
-----------------------------------------------------------------------------
[  9   9  19  19]-0.02629 [  8   8  14  14]-0.02587 [  8   8  16  16]-0.02002
[  8   8  16  14]-0.01965 [  8   8  14  16]-0.01965 [ 10  10  14  14]-0.01964
[ 10   8  14  14]-0.01896 [  8  10  14  14]-0.01896 [  8   8  19  19]-0.01840
[  9   9  19  15]-0.01785 [  9   9  15  19]-0.01785 [ 13  13 112 112]-0.01762
[  9   8  19  19] 0.01643 [  8   9  19  19] 0.01643 [  9   9  14  14]-0.01573
-----------------------------------------------------------------------------
   Norm of T2AB vector (  1799624 symmetry allowed elements):  0.3547132232.
-----------------------------------------------------------------------------
 @CHECKOUT-I, Total execution time (CPU/WALL):        6.31/       7.81 seconds.
--executable xintprc finished with status     0 in        7.94 seconds (walltime).
  calling xvcc 
 --invoking executable--
/home/asmola/.local/bin/xvcc
 @GETMEM-I,  Allocated    3814 MB of main memory.
   CCSD energy will be calculated.
   The total correlation energy is -0.869536870168 a.u.
   The total correlation energy is -0.860819775174 a.u.
  Convergence information after     1 iterations: 
  Largest element of residual vector : -0.15586868E-01.
  Largest element of DIIS residual   : -0.15586868E-01.
   The total correlation energy is -0.880789686092 a.u.
  Convergence information after     2 iterations: 
  Largest element of residual vector : -0.54132240E-02.
  Largest element of DIIS residual   : -0.49150391E-02.
   The total correlation energy is -0.879833790679 a.u.
  Convergence information after     3 iterations: 
  Largest element of residual vector :  0.42710888E-02.
  Largest element of DIIS residual   :  0.40389674E-02.
   The total correlation energy is -0.882274023744 a.u.
  Convergence information after     4 iterations: 
  Largest element of residual vector : -0.10683695E-02.
  Largest element of DIIS residual   :  0.91951146E-03.
   The total correlation energy is -0.882666392283 a.u.
  Convergence information after     5 iterations: 
  Largest element of residual vector :  0.14189650E-02.
  Largest element of DIIS residual   :  0.85848697E-03.
   The total correlation energy is -0.882697034882 a.u.
  Convergence information after     6 iterations: 
  Largest element of residual vector :  0.47739239E-03.
  Largest element of DIIS residual   :  0.25098446E-03.
   The total correlation energy is -0.882706720397 a.u.
  Convergence information after     7 iterations: 
  Largest element of residual vector :  0.31724737E-03.
  Largest element of DIIS residual   :  0.16784389E-03.
   The total correlation energy is -0.882710130298 a.u.
  Convergence information after     8 iterations: 
  Largest element of residual vector :  0.93324651E-04.
  Largest element of DIIS residual   :  0.56116939E-04.
   The total correlation energy is -0.882708084142 a.u.
  Convergence information after     9 iterations: 
  Largest element of residual vector :  0.46289094E-04.
  Largest element of DIIS residual   : -0.28341869E-04.
   The total correlation energy is -0.882711512382 a.u.
  Convergence information after    10 iterations: 
  Largest element of residual vector :  0.21853706E-04.
  Largest element of DIIS residual   :  0.13008111E-04.
   The total correlation energy is -0.882711936595 a.u.
  Convergence information after    11 iterations: 
  Largest element of residual vector :  0.94522199E-05.
  Largest element of DIIS residual   :  0.62853455E-05.
   The total correlation energy is -0.882712781680 a.u.
  Convergence information after    12 iterations: 
  Largest element of residual vector :  0.51264961E-05.
  Largest element of DIIS residual   :  0.37499508E-05.
   The total correlation energy is -0.882713166909 a.u.
  Convergence information after    13 iterations: 
  Largest element of residual vector :  0.18923732E-05.
  Largest element of DIIS residual   :  0.13329392E-05.
   The total correlation energy is -0.882713277127 a.u.
  Convergence information after    14 iterations: 
  Largest element of residual vector :  0.17603767E-05.
  Largest element of DIIS residual   :  0.10726719E-05.
   The total correlation energy is -0.882713339601 a.u.
  Convergence information after    15 iterations: 
  Largest element of residual vector :  0.68802121E-06.
  Largest element of DIIS residual   :  0.37191407E-06.
   The total correlation energy is -0.882713355766 a.u.
  Convergence information after    16 iterations: 
  Largest element of residual vector :  0.49088207E-06.
  Largest element of DIIS residual   :  0.14883233E-06.
   The total correlation energy is -0.882713367271 a.u.
  Convergence information after    17 iterations: 
  Largest element of residual vector :  0.19098484E-06.
  Largest element of DIIS residual   :  0.68452162E-07.
   The total correlation energy is -0.882713370219 a.u.
  Convergence information after    18 iterations: 
  Largest element of residual vector :  0.48293313E-07.
  Largest element of DIIS residual   :  0.46846198E-07.
   The total correlation energy is -0.882713370813 a.u.
  Convergence information after    19 iterations: 
  Largest element of residual vector :  0.35889605E-07.
  Largest element of DIIS residual   :  0.22255096E-07.
   The total correlation energy is -0.882713373044 a.u.
  Convergence information after    20 iterations: 
  Largest element of residual vector :  0.16199667E-07.
  Largest element of DIIS residual   :  0.14648057E-07.
   The total correlation energy is -0.882713373106 a.u.
  Convergence information after    21 iterations: 
  Largest element of residual vector :  0.97142397E-08.
  Largest element of DIIS residual   :  0.67556087E-08.
   The total correlation energy is -0.882713373758 a.u.
  Convergence information after    22 iterations: 
  Largest element of residual vector :  0.50275739E-08.
  Largest element of DIIS residual   :  0.36144059E-08.
   The total correlation energy is -0.882713373768 a.u.
  Convergence information after    23 iterations: 
  Largest element of residual vector :  0.24145885E-08.
  Largest element of DIIS residual   :  0.11356321E-08.
   The total correlation energy is -0.882713373811 a.u.
  Convergence information after    24 iterations: 
  Largest element of residual vector :  0.75238888E-09.
  Largest element of DIIS residual   :  0.37774520E-09.
   The total correlation energy is -0.882713373804 a.u.
  Convergence information after    25 iterations: 
  Largest element of residual vector :  0.26854614E-09.
  Largest element of DIIS residual   :  0.23379384E-09.
   The total correlation energy is -0.882713373791 a.u.
  Convergence information after    26 iterations: 
  Largest element of residual vector :  0.16174073E-09.
  Largest element of DIIS residual   :  0.69985513E-10.
   The total correlation energy is -0.882713373793 a.u.
  Convergence information after    27 iterations: 
  Largest element of residual vector : -0.56576476E-10.
  Largest element of DIIS residual   :  0.52466415E-10.
  Amplitude equations converged in    27iterations.
   The total correlation energy is -0.882713373792 a.u.
[...]
 term  0.456685770138597     
 final tnorm  0.812017992710547     
  norm contr. I: |<0|L dT/dx|0>|^2   0.000000000000000E+000
  norm contr. II: <0|[nabla(1+L)e-T][nabla e^T]|0>  0.456685770138597     
  total norm contribution  0.456685770138597     
 oo  2.176847079196880E-003
 vv  -1.53414917549475     
 vo -2.981820248118602E-002
  Correlated perturbed 1-el contribution to DBOC  -1.56179053089674       cm**-1
  SUM_I |dc_I/dx|^2 contribution to DBOC  0.786404817428550       cm**-1
 
 
  The total diagonal Born-Oppenheimer correction (DBOC) is:      0.0087376942 a.u.
  The total diagonal Born-Oppenheimer correction (DBOC) is:       1917.702203 cm-1
 
 Total CC energy including DBOC  -535.691292312481     
 First-order density matrix is being calculated  (Symmetry block 2, perturbation   3)
 Calculation of the contributions of <pq||rs> to dI(i,j)/dx required   3.4 seconds.
 Calculation of the contributions of <pq||rs> to dI(a,b)/dx required  10.1 seconds.
 Calculation of the contributions of <pq||rs> to dI(i,a)/dx required   6.5 seconds.
 First-order Z-vector equations are solved for 1 perturbation.
 Convergence reached after  23 iterations.
        U*G(pq,rs) contribution is being calculated
             (Symmetry block 2, perturbation   3)

 CCSD contribution to force constants 

        0.0000000000        0.0000000000        0.0000000000
        0.0000000000        0.0000000000        0.0000000000
        0.0000000000        0.0000000000        0.0000000000
        0.0000000000        0.0000000000        0.0000000000
        0.0000000000        0.0000000000        0.0000000000
        0.0000000000        0.0000000000        0.0000000000
        0.0000000000        0.0000000000        0.0000000000
        0.0000000000        0.0000000000        0.0000000000
        0.0000000000        0.0000000000        0.0000000000
        0.0000000000        0.0000000000        0.0000000000
        0.0000000000        0.0000000000        0.0000000000
        0.0000000000        0.0000000000        0.0000000000
        0.0000000000        0.0000000000        0.0000000000
        0.0000000000        0.0000000000        0.0000000000
        0.0000000000        0.0000000000        0.0000000000
        0.0000000000        0.0000000000        0.0000000000
        0.0000000000        0.0000000000        0.0000000000
        0.0000000000        0.0000000000        0.0000000000
        0.0000000000        0.0000000000        0.0000000000
        0.0000000000        0.0000000000        0.0000000000
        0.0000000000        0.0000000000        0.0000000000
        0.0000000000        0.0000000000        0.0000000000
        0.0000000000        0.0000000000        0.0000000000
        0.0000000000        0.0000000000        0.0000000000
        0.0000000000        0.0000000000        0.0000000000
        0.0000000000        0.0000000000        0.0000000000
        0.0741766553       -0.0088460379       -0.0653306173

 CCSD contribution to dipole derivatives 

        0.0000000000        0.0000000000        0.0000000000
        0.0000000000        0.0000000000        0.0000000000
        0.0000000000        0.0000000000        0.0000000000
        0.0000000000        0.0000000000        0.0000000000
        0.0000000000        0.0000000000        0.0000000000
        0.0000000000        0.0000000000        0.0000000000
        0.0000000000        0.0000000000        0.0000000000
        0.0000000000        0.0000000000        0.0000000000
        0.0000000000        0.0000000000        0.0180320330
 @CHECKOUT-I, Total execution time (CPU/WALL):      974.77/     276.58 seconds.
--executable xsdcc finished with status     0 in      276.78 seconds (walltime).
 --invoking executable--
/home/asmola/.local/bin/xanti
 @GETMEM-I,  Allocated    3814 MB of main memory.
 CCSD MO derivative gammas will be sorted to Mulliken order.
 @CHECKOUT-I, Total execution time (CPU/WALL):        6.50/       5.46 seconds.
--executable xanti finished with status     0 in        5.59 seconds (walltime).
 --invoking executable--
/home/asmola/.local/bin/xbcktrn
 @GETMEM-I,  Allocated    3814 MB of main memory.
 CCSD MO derivative gammas will be transformed to the AO basis.
 @CHECKOUT-I, Total execution time (CPU/WALL):       11.35/       2.78 seconds.
--executable xbcktrn finished with status     0 in        2.84 seconds (walltime).
 --invoking executable--
/home/asmola/.local/bin/xvdint
 @GETMEM-I,  Allocated    3814 MB of main memory.
 One- and two-electron integral derivatives are calculated
 for RHF-CC/MBPT hessians and dipole derivatives.
 Spherical gaussians are used.
  magnet F F
 Evaluation of 2el integral derivatives

                      Two-electron integral gradient
                      ------------------------------

                         O #1 x     0.0000000000
                         O #1 y     0.0000000000
                         H #2 x     0.0000000000
                         H #2 y     0.0000000000
                         CL#3 x     0.0000000000
                         CL#3 y     0.0000000000


 O #1       0.0000000000            0.0000000000           -0.0866952699
 H #2       0.0000000000            0.0000000000            0.0030035816
 CL#3       0.0000000000            0.0000000000            0.0836916883


 Evaluation of 2e integral derivatives required  115.18 seconds.
  contribution to Hessian
        0.0000000000        0.0000000000        0.0000000000
        0.0000000000        0.0000000000        0.0000000000
       -0.0866952699        0.0030035816        0.0836916883
 @CHECKOUT-I, Total execution time (CPU/WALL):      115.32/      20.23 seconds.
--executable xvdint finished with status     0 in       20.33 seconds (walltime).
 --invoking executable--
/home/asmola/.local/bin/xanti
 @GETMEM-I,  Allocated    3814 MB of main memory.
 CCSD MO gammas will be sorted to Mulliken order.
 @CHECKOUT-I, Total execution time (CPU/WALL):        9.50/      24.82 seconds.
--executable xanti finished with status     0 in       24.91 seconds (walltime).
 --invoking executable--
/home/asmola/.local/bin/xbcktrn
 @GETMEM-I,  Allocated    3814 MB of main memory.
 CCSD MO gammas will be transformed to the AO basis.
 @CHECKOUT-I, Total execution time (CPU/WALL):       23.17/       6.91 seconds.
--executable xbcktrn finished with status     0 in        7.00 seconds (walltime).
 --invoking executable--
/home/asmola/.local/bin/xvdint
 @GETMEM-I,  Allocated    3814 MB of main memory.
 One- and two-electron integral derivatives are calculated
 for RHF-CC/MBPT hessians and dipole derivatives.
 Spherical gaussians are used.
  magnet F F

                     Kinetic energy integral gradient
                     --------------------------------

                         O #1 x     0.2564096120
                         O #1 y    -0.1667497308
                         H #2 x     0.0821481655
                         H #2 y     0.1648838424
                         CL#3 x    -0.3385577775
                         CL#3 y     0.0018658884


 O #1       0.2564096120           -0.1667497308            0.0000000000
 H #2       0.0821481655            0.1648838424            0.0000000000
 CL#3      -0.3385577775            0.0018658884            0.0000000000



                   Nuclear attraction integral gradient
                   ------------------------------------

                         O #1 x   -24.8766585585
                         O #1 y     4.6528014086
                         H #2 x    -2.5619363528
                         H #2 y    -3.8487246310
                         CL#3 x    27.4385949113
                         CL#3 y    -0.8040767776


 O #1     -24.8766585585            4.6528014086            0.0000000000
 H #2      -2.5619363528           -3.8487246310            0.0000000000
 CL#3      27.4385949113           -0.8040767776            0.0000000000



                      Reorthonormalization gradient
                      -----------------------------

                         O #1 x     0.0000000000
                         O #1 y     0.0000000000
                         H #2 x     0.0000000000
                         H #2 y     0.0000000000
                         CL#3 x     0.0000000000
                         CL#3 y     0.0000000000


 O #1       0.0000000000            0.0000000000            0.0000000000
 H #2       0.0000000000            0.0000000000            0.0000000000
 CL#3       0.0000000000            0.0000000000            0.0000000000



                     Kinetic energy integral Hessian
                     -------------------------------


           Symmetry 1

           O #1 x      O #1 y      H #2 x      H #2 y      CL#3 x      CL#3 y

 O #1 x    0.327546
 O #1 y    0.097501   -0.085907
 H #2 x    0.047229   -0.116313   -0.052616
 H #2 y   -0.116313   -0.131044    0.117240    0.134741
 CL#3 x   -0.374775    0.018812    0.005387   -0.000927    0.369388
 CL#3 y    0.018812    0.216952   -0.000927   -0.003696   -0.017885   -0.213256


           Symmetry 2

           O #1 z      H #2 z      CL#3 z

 O #1 z   -0.322519
 H #2 z    0.112704   -0.111777
 CL#3 z    0.209815   -0.000927   -0.208888




           O #1 x      O #1 y      O #1 z      H #2 x      H #2 y      H #2 z

 O #1 x    0.327546
 O #1 y    0.097501   -0.085907
 O #1 z    0.000000    0.000000   -0.322519

 H #2 x    0.047229   -0.116313    0.000000   -0.052616
 H #2 y   -0.116313   -0.131044    0.000000    0.117240    0.134741
 H #2 z    0.000000    0.000000    0.112704    0.000000    0.000000   -0.111777

 CL#3 x   -0.374775    0.018812    0.000000    0.005387   -0.000927    0.000000
 CL#3 y    0.018812    0.216952    0.000000   -0.000927   -0.003696    0.000000
 CL#3 z    0.000000    0.000000    0.209815    0.000000    0.000000   -0.000927


           CL#3 x      CL#3 y      CL#3 z

 CL#3 x    0.369388
 CL#3 y   -0.017885   -0.213256
 CL#3 z    0.000000    0.000000   -0.208888




                   Nuclear attraction integral Hessian
                   -----------------------------------


           Symmetry 1

           O #1 x      O #1 y      H #2 x      H #2 y      CL#3 x      CL#3 y

 O #1 x  -12.838734
 O #1 y    0.173692    9.374790
 H #2 x   -1.389750    1.443861    1.161878
 H #2 y    1.439295    0.869003   -1.931821   -1.098155
 CL#3 x   14.228485   -1.617553    0.227873    0.492526  -14.456357
 CL#3 y   -1.612987  -10.243792    0.487960    0.229152    1.125027   10.014640


           Symmetry 2

           O #1 z      H #2 z      CL#3 z

 O #1 z   11.901673
 H #2 z   -2.177563    2.392400
 CL#3 z   -9.724110   -0.214837    9.938947




           O #1 x      O #1 y      O #1 z      H #2 x      H #2 y      H #2 z

 O #1 x  -12.838734
 O #1 y    0.173692    9.374790
 O #1 z    0.000000    0.000000   11.901673

 H #2 x   -1.389750    1.443861    0.000000    1.161878
 H #2 y    1.439295    0.869003    0.000000   -1.931821   -1.098155
 H #2 z    0.000000    0.000000   -2.177563    0.000000    0.000000    2.392400

 CL#3 x   14.228485   -1.617553    0.000000    0.227873    0.492526    0.000000
 CL#3 y   -1.612987  -10.243792    0.000000    0.487960    0.229152    0.000000
 CL#3 z    0.000000    0.000000   -9.724110    0.000000    0.000000   -0.214837


           CL#3 x      CL#3 y      CL#3 z

 CL#3 x  -14.456357
 CL#3 y    1.125027   10.014640
 CL#3 z    0.000000    0.000000    9.938947




                Highest order reorthonormalization Hessian
                ------------------------------------------


           Symmetry 1

           O #1 x      O #1 y      H #2 x      H #2 y      CL#3 x      CL#3 y

 O #1 x    0.000000
 O #1 y    0.000000    0.000000
 H #2 x    0.000000    0.000000    0.000000
 H #2 y    0.000000    0.000000    0.000000    0.000000
 CL#3 x    0.000000    0.000000    0.000000    0.000000    0.000000
 CL#3 y    0.000000    0.000000    0.000000    0.000000    0.000000    0.000000


           Symmetry 2

           O #1 z      H #2 z      CL#3 z

 O #1 z    0.000000
 H #2 z    0.000000    0.000000
 CL#3 z    0.000000    0.000000    0.000000




           O #1 x      O #1 y      O #1 z      H #2 x      H #2 y      H #2 z


           CL#3 x      CL#3 y      CL#3 z




                Electronic contributions to dipole moment
                -----------------------------------------

                               au             Debye

                    x      1.82876746      4.64826403
                    y      0.50610206      1.28638334

  Conversion factor used: 1 a.u. =   2.54174691 Debye 



   Electronic contributions to static part of dipole moment derivatives
   --------------------------------------------------------------------


                     Total dipole moment derivatives
                     -------------------------------


           Symmetry 1
                              Ex             Ey

               O #1 x    -8.75868311    -0.08404219
               O #1 y    -0.31185518    -8.77783187
               H #2 x    -0.48118997     0.08044272
               H #2 y     0.36012650    -0.39402342
               CL#3 x   -16.76012692     0.00359947
               CL#3 y    -0.04827132   -16.82814471

           Symmetry 2
                              Ez

               O #1 z    -8.41648469
               H #2 z    -0.71995563
               CL#3 z   -16.86355969



                       Ex          Ey          Ez

      O #1    x   -8.758683   -0.084042    0.000000
      O #1    y   -0.311855   -8.777832    0.000000
      O #1    z    0.000000    0.000000   -8.416485

      H #2    x   -0.481190    0.080443    0.000000
      H #2    y    0.360126   -0.394023    0.000000
      H #2    z    0.000000    0.000000   -0.719956

      CL#3    x  -16.760127    0.003599    0.000000
      CL#3    y   -0.048271  -16.828145    0.000000
      CL#3    z    0.000000    0.000000  -16.863560

 Evaluation of 1e integral derivatives required    1.63 seconds.
 Evaluation of 2el integral derivatives

                      Two-electron integral gradient
                      ------------------------------

                         O #1 x    11.5296271927
                         O #1 y    -2.3618890203
                         H #2 x     1.3477675334
                         H #2 y     2.0991337850
                         CL#3 x   -12.8773947261
                         CL#3 y     0.2627552353


 O #1      11.5296271927           -2.3618890203            0.0000000000
 H #2       1.3477675334            2.0991337850            0.0000000000
 CL#3     -12.8773947261            0.2627552353            0.0000000000


 Evaluation of 2e integral derivatives required  295.32 seconds.

                            Molecular gradient
                            ------------------

                         O #1 x    -0.0562437848
                         O #1 y     0.2159796665
                         H #2 x    -0.1005095569
                         H #2 y    -0.2212708207
                         CL#3 x     0.1567533417
                         CL#3 y     0.0052911542


 O #1      -0.0562437848            0.2159796665            0.0000000000
 H #2      -0.1005095569           -0.2212708207            0.0000000000
 CL#3       0.1567533417            0.0052911542            0.0000000000


  Molecular gradient norm 0.365E+00

                            Molecular hessian
                            -----------------


           Symmetry 1

           O #1 x      O #1 y      H #2 x      H #2 y      CL#3 x      CL#3 y

 O #1 x    2.066813
 O #1 y    1.095209    3.846564
 H #2 x   -0.304707   -1.764973    0.374412
 H #2 y   -1.469994   -4.457614    1.487553    4.427904
 CL#3 x   -1.762106    0.670905   -0.033588    0.013270    1.795694
 CL#3 y    0.374785    0.611049   -0.009505    0.024794   -0.365280   -0.635843


           Symmetry 2

           O #1 z      H #2 z      CL#3 z

 O #1 z    0.083716
 H #2 z    0.017633    0.001486
 CL#3 z   -0.101349   -0.008877    0.110226




           O #1 x      O #1 y      O #1 z      H #2 x      H #2 y      H #2 z

 O #1 x    2.066813
 O #1 y    1.095209    3.846564
 O #1 z    0.000000    0.000000    0.083716

 H #2 x   -0.304707   -1.764973    0.000000    0.374412
 H #2 y   -1.469994   -4.457614    0.000000    1.487553    4.427904
 H #2 z    0.000000    0.000000    0.017633    0.000000    0.000000    0.001486

 CL#3 x   -1.762106    0.670905    0.000000   -0.033588    0.013270    0.000000
 CL#3 y    0.374785    0.611049    0.000000   -0.009505    0.024794    0.000000
 CL#3 z    0.000000    0.000000   -0.101349    0.000000    0.000000   -0.008877


           CL#3 x      CL#3 y      CL#3 z

 CL#3 x    1.795694
 CL#3 y   -0.365280   -0.635843
 CL#3 z    0.000000    0.000000    0.110226




                           Total dipole moment
                           -------------------

                               au             Debye

                    x     -0.22316718     -0.56723449
                    y     -0.65649825     -1.66865240

  Conversion factor used: 1 a.u. =   2.54174691 Debye 



                     Total dipole moment derivatives
                     -------------------------------


           Symmetry 1
                              Ex             Ey

               O #1 x    -0.11759203     0.11343062
               O #1 y     0.12344082     0.01490914
               H #2 x     0.12040126    -0.11213973
               H #2 y    -0.18077999    -0.02759673
               CL#3 x    -0.00280927    -0.00129082
               CL#3 y     0.05733862     0.01268743

           Symmetry 2
                              Ez

               O #1 z    -0.26328770
               H #2 z     0.25533029
               CL#3 z     0.00795734



                       Ex          Ey          Ez

      O #1    x   -0.117592    0.113431    0.000000
      O #1    y    0.123441    0.014909    0.000000
      O #1    z    0.000000    0.000000   -0.263288

      H #2    x    0.120401   -0.112140    0.000000
      H #2    y   -0.180780   -0.027597    0.000000
      H #2    z    0.000000    0.000000    0.255330

      CL#3    x   -0.002809   -0.001291    0.000000
      CL#3    y    0.057339    0.012687    0.000000
      CL#3    z    0.000000    0.000000    0.007957

  Molecular gradient does not satisfy rotational invariance condition.
   rotational invariance in yz-plane :        0.0000E+00
   rotational invariance in xz-plane :        0.0000E+00
   rotational invariance in xy-plane :        -.9551E-02
 @CHECKOUT-I, Total execution time (CPU/WALL):      297.03/      42.30 seconds.
--executable xvdint finished with status     0 in       42.40 seconds (walltime).
 --invoking executable--
/home/asmola/.local/bin/xjoda
  @GTFLGS-I, Hessian will be transformed to curvilinear coordinates.
  @GTFLGS-I, Hessian will be transformed to curvilinear coordinates.
  igrd and ihes are                      0                     1
  gradient from JOBARC 
  -0.056243784849606   0.215979666475269   0.000000000000000
  -0.100509556880521  -0.221270820675296   0.000000000000000
   0.156753341730131   0.005291154200028   0.000000000000000
 
  @PROJFCM-I, Projecting force constant matrix onto totally symmetric subspace.
  Largest difference between matrix elements of symmetrized
  and unsymmetrized FCM :     0.0000000000E+00.
 
  Summary of diagonal Born-Oppenheimer correction at the correlated level
  The total diagonal Born-Oppenheimer correction (DBOC) is:      0.0087376942 a.u.
  The total diagonal Born-Oppenheimer correction (DBOC) is:       1917.702203 cm-1
  The total diagonal Born-Oppenheimer correction (DBOC) is:            22.941 kJ/mole
  hellooooooo 
  readis is  F
 
 @CHECKOUT-I, Total execution time (CPU/WALL):        0.01/       0.04 seconds.
--executable xjoda finished with status     0 in        0.08 seconds (walltime).
  The final electronic energy is      -535.691292312481096 a.u. 
  This computation required                         2977.68 seconds (walltime).
