 --invoking executable--
/home/asmola/.local/bin/xjoda


   *************************************************************************
         <<<     CCCCCC     CCCCCC   |||     CCCCCC     CCCCCC   >>>
       <<<      CCC        CCC       |||    CCC        CCC         >>>
      <<<      CCC        CCC        |||   CCC        CCC            >>>
    <<<        CCC        CCC        |||   CCC        CCC              >>>
      <<<      CCC        CCC        |||   CCC        CCC            >>>
       <<<      CCC        CCC       |||    CCC        CCC         >>>
         <<<     CCCCCC     CCCCCC   |||     CCCCCC     CCCCCC   >>>
   *************************************************************************

     ****************************************************************
     * CFOUR Coupled-Cluster techniques for Computational Chemistry *
     ****************************************************************
 

   Department of Chemistry                Institut fuer Physikalische Chemie
   University of Florida                  Universitaet Mainz
   Gainesville, FL 32611, USA             D-55099 Mainz, Germany

   Department of Chemistry                Fakultaet fuer Chemie und Biowiss.
   Johns Hopkins University               Karlsruher Institut fuer Technologie
   Baltimore, MD 21218, USA               D-76131 Karlsruhe, Germany

   Department of Chemistry                Department of Physical Chemistry
   Southern Methodist University          Eotvos Lorand University
   Dallas, TX 75275, USA                  H-1053 Budapest, Hungary

 
                       Version 2.1
 
                     vincent.theory.phys.ucl.ac.uk                     
                     Fri 31 Jan 05:38:27 GMT 2025                      
                     integer*8 version is running
 
********************************************************************************
*                          Input from ZMAT file                                *
********************************************************************************
Hypochlorous acid DBOC calculation                                              
O                                                                               
H 1 ROH                                                                         
CL 1 ROCL 2 A                                                                   
                                                                                
ROH=1.950000000000001                                                           
ROCL=1.683                                                                      
A=107.0                                                                         
                                                                                
                                                                                
*CFOUR(CALC=CCSD,BASIS=AUG-PCVTZ,SCF_CONV=10                                    
CC_CONV=10,DBOC=ON,MEMORY=500000000)                                            
********************************************************************************
  @GTFLGS-I, Hessian will be transformed to curvilinear coordinates.
    -------------------------------------------------------------------
                    CFOUR Control Parameters 
    -------------------------------------------------------------------
        External           Internal           Value            Units
          Name               Name
    -------------------------------------------------------------------
       ABCDTYPE             IABCDT         STANDARD    [  0]    ***   
       ANHARMONIC           IANHAR         OFF         [  0]    ***   
       ANH_ALGORIT          IANALG         STANDARD    [  0]    ***   
       ANH_DERIVAT          IANDER         SECOND      [  1]    ***   
       ANH_MODE             ANHMOD         VIBRATION   [  0]    ***   
       ANH_STEPSIZ          ICUBST             50000          x 10-6  
       ANH_SYMMETR          IANHSM         ABELIAN     [  0]    ***   
       AO_LADDERS           IAOLAD         SINGLEPASS  [  1]    ***   
       AV_SCF               IAVSCF         OFF         [  0]    ***   
       BASIS                IBASIS         AUG-PCVTZ   [ 51]    ***   
       BOTHVECTORS          BOTHVC         OFF         [  0]    ***   
       BOX_POTENT           IPIAB          OFF         [  0]    ***   
       BREIT                IBREIT         OFF         [  0]    ***   
       BRUCK_CONV           IBRTOL          10D-  4             ***   
       BRUECKNER            IBRKNR         OFF         [  0]    ***   
       BUFFERSIZE           IBUFFS              4096            ***   
       CACHE_RECS           ICHREC             10               ***   
       CALCLEVEL            ICLLVL         CCSD        [ 10]    ***   
       CCORBOPT             ICCORB         OFF         [  0]  x 0.01  
       CC_CONV              ICCCNV          10D- 10             ***   
       CC_EXPORDER          ICCEOR              5               ***   
       CC_EXTRAPOL          ICCEXT         DIIS        [  1]    ***   
       CC_GUESS             ICCGES         MP2         [  0]    ***   
       CC_MAXCYC            ICCCYC            100              cycles 
       CC_PROGRAM           ICCPRO         VCC         [  0]    ***   
       CHARGE               ICHRGE              0               ***   
       CHOLESKY             ICHOLE         OFF         [  0]    ***   
       CIS_CONV             ICISTL              5               ***   
       COMM_SIZE            IPSIZE            ***               ***   
       CONSTANT             ICONST         OLD         [  1]    ***   
       CONTINUUM            ICONTU         NONE        [  0]    ***   
       CONTRACTION          ICNTYP         GENERAL     [  1]    ***   
       COORDINATES          ICOORD         INTERNAL    [  0]    ***   
       CPHF_CONVER          ICPHFT          10D- 16             ***   
       CPHF_MAXCYC          ICPHFC             64              cycles 
       CUBIC                ICUBIC         OFF         [  0]    ***   
       CURVILINEAR          ICURVY         ON          [  1]    ***   
       DBOC                 IDBOC          ON          [  1]    ***   
       DCT                  IDCT           OFF         [  0]    ***   
       DERIV_LEV            IDRLVL         SECOND      [  2]    ***   
       DEVMEM_SIZE          IDVMEM          50000000           MByte  
       DIAG_MRCC            IEOMST          10D-  0             ***   
       DIFF_TYPE            IDIFTY         RELAXED     [  0]    ***   
       DIRECT               IDIRCT         OFF         [  0]    ***   
       DROPMO               IDRPMO      NONE         
       ECP                  IECP           OFF         [  0]    ***   
       EIGENVECTOR          IVEC                1               ***   
       EL_ANHARM            IELANH         OFF         [  0]    ***   
       EOMFOLLOW            IEOMSR         ENERGY      [  0]    ***   
       EOMIP                IEOMIP         OFF         [  0]    ***   
       EOMLEVEL             HBARFM         SAME        [  0]    ***   
       EOM_MRCC             IMRCCE         NEW         [  1]    ***   
       EOM_NONIT            EOMNON         OFF         [  0]    ***   
       EOM_NSING            IEOMSI          10D-  0             ***   
       EOM_NSTATES          IMRCCD         DAVIDSON    [  0]    ***   
       EOM_NTRIP            IEOMTR          10D-  0             ***   
       EOM_ORDER            IEXORD         ENERGY      [  0]    ***   
       EOM_PROPSTA          IEOMST              0               ***   
       ESTATE_CONV          IEXTOL          10D-  5             ***   
       ESTATE_DIAG          IEXDIG         ITERATIVE   [  0]    ***   
       ESTATE_LOCK          IESLOC         ON          [  1]    ***   
       ESTATE_MAXC          IEXMXC             40               ***   
       ESTATE_PROP          IEXPRP         OFF         [  0]    ***   
       EVAL_HESS            IRECAL              0            # of cyc.
       EXCITATION           IEXCIT              0               ***   
       EXCITE               IEXCIT         NONE        [  0]    ***   
       EXTERN_POT           IEXPOT         OFF         [  0]    ***   
       FCGRADNEW            IFCGNW         OFF         [  0]    ***   
       FC_FIELD             IFINFC              0             x 10-6  
       FD_CALTYPE           IFDCAL         GRADONLY    [  0]    ***   
       FD_PROJECT           IFDPRJ         OFF         [  1]    ***   
       FD_STEPSIZE          IDISFD              0            10-4 bohr
       FD_USEGROUP          IFDGRP         FULL        [  0]    ***   
       FILE_RECSIZ          IFLREC              4096           words  
       FINITE_PERT          IFIPER              0             x 10-6  
       FIXGEOM              IFIXGM         OFF         [  0]    ***   
       FOCK                 IFOCK          AO          [  1]    ***   
       FREQ_ALGORI          IVIALG         STANDARD    [  0]    ***   
       FROZEN_CORE          IFROCO         OFF         [  0]    ***   
       GAMMA_ABCD           IGABCD         STORE       [  0]    ***   
       GAMMA_ABCI           IGABCI         STORE       [  0]    ***   
       GENBAS_1             IGNBS1              0               ***   
       GENBAS_2             IGNBS2              0               ***   
       GENBAS_3             IGNBS3              0               ***   
       GENBAS_4             IGNBS4              0               ***   
       GEO_CONV             ICONTL              5              H/bohr 
       GEO_MAXCYC           IOPTCY             50               ***   
       GEO_MAXSTEP          IMXSTP            300            millibohr
       GEO_METHOD           INR            SINGLE_POINT[  5]    ***   
       GIAO                 IGIAO          OFF         [  1]    ***   
       GIMIC                IGIMIC         OFF         [  0]    ***   
       GRID                 IGRID          OFF         [  0]    ***   
       GRID_ALGO            IGALGO         SERIAL      [  0]    ***   
       GUESS                IGUESS         MOREAD      [  0]    ***   
       HBAR                 IHBAR          OFF         [  0]    ***   
       HESS_TYPE            IHESTP         SCF         [  0]    ***   
       HF2_FILE             IHF2Fl         USE         [  1]    ***   
       HFSTABILITY          ISTABL         OFF         [  0]    ***   
       INCORE               INCORE         OFF         [  0]    ***   
       INPUT_MRCC           IMRCC          ON          [  1]    ***   
       INTEGRALS            INTTYP         VMOL        [  1]    ***   
       JODA_PRINT           IJPRNT              0               ***   
       KEYWORD_OUT          IDMPKW         NO          [  0]    ***   
       LINDEP_TOL           ILINDP              8               ***   
       LINEQ_CONV           IZTACN          10D-  7           cycles  
       LINEQ_EXPOR          ILMAXD              5               ***   
       LINEQ_MAXCY          ILMAXC            100               ***   
       LINEQ_TYPE           ILTYPE         DIIS        [  1]    ***   
       LOCK_ORBOCC          ILOCOC         OFF         [  0]    ***   
       MEMORY_SIZE          IMEMSZ         500000000           words  
       MEM_UNIT             IMEMU          INTEGERWORDS[  0]    ***   
       MRCC                 IMRCCC         OFF         [  0]    ***   
       MULTIPLICTY          IMULTP              1               ***   
       NACOUPLING           IVCOUP         OFF         [  0]    ***   
       NEGEVAL              IDIE           ABORT       [  0]    ***   
       NEWNORM              INEWNO         OFF         [  0]    ***   
       NON-HF               INONHF         OFF         [  0]    ***   
       NTOP_TAMP            ITOPT2             15               ***   
       NUC_MODEL            INUCMO         POINT       [  0]    ***   
       OCCUPATION           IOCCU   ESTIMATED BY SCF 
       OPEN-SHELL           IOPEN          SPIN-ORBITAL[  0]    ***   
       OPTVIB               IOPTVB         OFF         [  0]    ***   
       ORBITALS             IORBTP         STANDARD    [  0]    ***   
       PARALLEL             IPARAL         ON          [  1]    ***   
       PARA_INT             IPINTS         ON          [  1]    ***   
       PARA_PRINT           IPPRIN              0               ***   
       PERT_ORB             IPTORB         STANDARD    [  0]    ***   
       POINTS               IGRDFD              0               ***   
       PRINT                IPRNT               0               ***   
       PROPS                IPROPS         OFF         [  0]    ***   
       PROP_INTEGR          IINTYP         INTERNAL    [  0]    ***   
       PSI                  IPSI           OFF         [  0]    ***   
       QC_ALG               IQCALG         FLM         [  0]    ***   
       QC_LINALG            IQCLIN         TRIDIAG     [  2]    ***   
       QC_MAXCYC            IQCMAX          10D-100           cycles  
       QC_MAXSCFCY          IQCMSC          10D- 15           cycles  
       QC_RTRUST            IQCRTR          10D-  0           x 10-3  
       QC_SKIPSCF           IQCSKI         OFF         [  0]    ***   
       QC_START             IQCSTA          10D-  1             ***   
       QRHFGUESS            IQGUES         OFF         [  0]    ***   
       QUARTIC              IQUART         OFF         [  0]    ***   
       RAMAN_INT            IRAMIN         OFF         [  0]    ***   
       RAMAN_ORB            IRAMRE         UNRELAXED   [  0]    ***   
       RDO                  IRDOFM         ON          [  1]    ***   
       REDUCE_REPR          REDREP         Ir          [  0]    ***   
       REFERENCE            IREFNC         RHF         [  0]    ***   
       RELATIVIST           IRELAT         OFF         [  0]    ***   
       RELAX_DENS           IRDENS         ON          [  1]    ***   
       RESET_FLAGS          IRESET         OFF         [  0]    ***   
       RESTART_CC           ICCRES         OFF         [  0]    ***   
       ROT_EVEC             ROTVEC              0               ***   
       SAVE_INTS            ISVINT         OFF         [  0]    ***   
       SCALE_ON             ISTCRT              0               ***   
       SCF_CONV             ISCFCV          10D- 10             ***   
       SCF_DAMPING          IDAMP               0             x 10-3  
       SCF_EXPORDE          IRPPOR              6               ***   
       SCF_EXPSTAR          IRPPLS              8               ***   
       SCF_EXTRAPO          IRPP           ON          [  1]    ***   
       SCF_MAXCYC           ISCFCY            150              cycles 
       SCF_NOSTOP           ISCFST         OFF         [  0]    ***   
       SCF_PRINT            ISCFPR              0               ***   
       SCF_PROG             ISCFPR         SCF         [  0]    ***   
       SD_FIELD             IFINSD              0             x 10-6  
       SOPERT               IPERSO         OFF         [  0]    ***   
       SPHERICAL            IDFGHI         ON          [  1]    ***   
       SPINORBIT            ISOCAL         OFF         [  0]    ***   
       SPINROTATIO          ISRCON         OFF         [  0]    ***   
       SPIN_FLIP            ISPFLP         OFF         [  0]    ***   
       SPIN_ORBIT           ISPORB         OFF         [  0]    ***   
       SPIN_SCAL            ISCSMP         OFF         [  0]    ***   
       STEEPSCALE           ISTPSC              1000          x 10-3  
       SUBGROUP             ISUBGP         DEFAULT     [  0]    ***   
       SUBGRPAXIS           ISBXYZ         X           [  0]    ***   
       SYMMETRY             ISYM           ON          [  0]    ***   
       SYM_CHECK            ISYMCK         OVERRIDE    [  1]    ***   
       T3_EXTRAPOL          IT3EXT         OFF         [  0]    ***   
       T4_EXTRAPOL          IT4EXP         OFF         [  0]    ***   
       TAMP_SUM             IEVERY              5               ***   
       TESTSUITE            ITESTS         OFF         [  0]    ***   
       THERMOCH             ITHERM         OFF         [  0]    ***   
       TOL_CHOLESK          ITOLCH          10D-  4             ***   
       TRANGRAD             IRESRM         OFF         [  0]    ***   
       TRANS_INV            ITRAIN         IGNORE      [  1]    ***   
       TREAT_PERT           ITREAT         SIMULTANEOUS[  0]    ***   
       TRIP_ALGORI          ITRALG         NORMAL      [  0]    ***   
       UIJ_THRESHO          IUIJTH              1               ***   
       UNITS                IUNITS         ANGSTROM    [  0]    ***   
       UNOS                 IUNOS          OFF         [  0]    ***   
       UPDATE_HESS          IHUPDT         ON          [  1]    ***   
       VIBPHASE             ISETPH         STANDARD    [  0]    ***   
       VIBRATION            IVIB           ANALYTIC    [  1]    ***   
       VIB_ALGORIT          IGEALG         STANDARD    [  0]    ***   
       VNATORB              IVNORB         OFF         [  0]    ***   
       VTRAN                IVTRAN         FULL/PARTIAL[  0]    ***   
       XFIELD               IXEFLD              0             x 10-6  
       XFORM_TOL            IXFTOL          10D- 11             ***   
       YFIELD               IYEFLD              0             x 10-6  
       ZFIELD               IZEFLD              0             x 10-6  
       ZSCALE_EXP           IZEXPS         OFF         [  0]    ***   
    -------------------------------------------------------------------
   3 entries found in Z-matrix 
   Job Title : Hypochlorous acid DBOC calculation                                              
   There are  3 unique internal coordinates.
   Of these,  0 will be optimized.
   User supplied Z-matrix: 
--------------------------------------------------------------------------------
       SYMBOL    BOND      LENGTH    ANGLE     ANGLE     DIHED     ANGLE
                  TO      (ANGST)    WRT      (DEG)      WRT      (DEG)
--------------------------------------------------------------------------------
        O    
        H          1         ROH  
        CL         1         ROCL       2        A    
                  *Initial values for internal coordinates* 
                      Name             Value
                        ROH             1.9500000000
                        ROCL            1.6830000000
                        A             107.0000000000
--------------------------------------------------------------------------------
   Rotational constants (in cm-1): 
          0.4499742062             0.4907078246             5.4207279535
   Rotational constants (in MHz): 
      13489.8892213163         14711.0525504023        162509.3585003238
********************************************************************************
   The full molecular point group is C s .
   The largest Abelian subgroup of the full molecular point group is C s .
   The computational point group is C s .
********************************************************************************
--------------------------------------------------------------------------------
   Analysis of internal coordinates specified by Z-matrix 
--------------------------------------------------------------------------------
   *The nuclear repulsion energy is   48.008614921769464 a.u.
   *There are   3 degrees of freedom within the tot. symm. molecular subspace.
   *Z-matrix requests optimization of   0 coordinates.
   *The optimization is constrained.
   *The following   3 parameters can have non-zero 
    derivatives within the totally symmetric subspace:
             A    [ 3]  ROH  [ 1]  ROCL [ 2]
   *The following   0 parameters are to be optimized:

   *The following coordinates must be varied in an  unconstrained optimization.
             A    [ 3]  ROH  [ 1]  ROCL [ 2]
--------------------------------------------------------------------------------


 ----------------------------------------------------------------
         Coordinates used in calculation (QCOMP) 
 ----------------------------------------------------------------
 Z-matrix   Atomic            Coordinates (in bohr)
  Symbol    Number           X              Y              Z
 ----------------------------------------------------------------
     O         8        -2.10092914     0.28471620     0.00000000
     H         1        -3.53309527    -3.11055697     0.00000000
     CL       17         1.06280078    -0.04058223     0.00000000
 ----------------------------------------------------------------
 
   Interatomic distance matrix (Angstroms) 
 
                 O             H             CL   
                [ 1]        [ 2]        [ 3]
  O    [ 1]     0.00000
  H    [ 2]     1.95000     0.00000
  CL   [ 3]     1.68300     2.92473     0.00000
 rotcon2
   Rotational constants (in cm-1): 
          5.4207279535             0.4907078246             0.4499742062
   Rotational constants (in MHz): 
     162509.3585003234         14711.0525504023         13489.8892213163
  ECPDATA file not present.   Using default ECPDATA. 
  @GTFLGS-I, Hessian will be transformed to curvilinear coordinates.
  There are  157 basis functions.
 @CHECKOUT-I, Total execution time (CPU/WALL):        0.18/       0.32 seconds.
--executable xjoda finished with status     0 in        0.36 seconds (walltime).
 --invoking executable--
/home/asmola/.local/bin/xvmol
 SERIAL VERSION OF MOLECULE STARTED
********************************************************************************
                    INPUT FROM MOL FILE
********************************************************************************
INTGRL        1    0    1    0    0    0    0    0    0                         
         *** CFOUR Program System (Release V0.1) ***                            
Hypochlorous acid DBOC calculation                                              
    3    1 Z          0.10E-08              0    0                              
   9999.00      3.00                                                            
          8.00000000    1    4    1    1    1    1                              
O #1  -2.100929137458699   0.284716195277538   0.000000000000000                
   13    7                                                                      
   15330.0000000000       5.080000000000000E-004 -1.150000000000000E-004        
  0.000000000000000E+000  0.000000000000000E+000  0.000000000000000E+000        
  0.000000000000000E+000  0.000000000000000E+000                                
   2299.00000000000       3.929000000000000E-003 -8.950000000000000E-004        
  0.000000000000000E+000  0.000000000000000E+000  0.000000000000000E+000        
  0.000000000000000E+000  0.000000000000000E+000                                
   522.400000000000       2.024300000000000E-002 -4.636000000000000E-003        
  0.000000000000000E+000  0.000000000000000E+000  0.000000000000000E+000        
  0.000000000000000E+000  0.000000000000000E+000                                
   147.300000000000       7.918100000000000E-002 -1.872400000000000E-002        
  0.000000000000000E+000  0.000000000000000E+000  0.000000000000000E+000        
  0.000000000000000E+000  0.000000000000000E+000                                
   47.5500000000000       0.230687000000000      -5.846300000000000E-002        
  0.000000000000000E+000  0.000000000000000E+000  0.000000000000000E+000        
  0.000000000000000E+000  0.000000000000000E+000                                
   16.7600000000000       0.433118000000000      -0.136463000000000             
  0.000000000000000E+000  0.000000000000000E+000  0.000000000000000E+000        
  0.000000000000000E+000  0.000000000000000E+000                                
   6.20700000000000       0.350260000000000      -0.175740000000000             
  0.000000000000000E+000  0.000000000000000E+000  0.000000000000000E+000        
  0.000000000000000E+000  0.000000000000000E+000                                
   1.75200000000000       4.272800000000000E-002  0.160934000000000             
   1.00000000000000       0.000000000000000E+000  0.000000000000000E+000        
  0.000000000000000E+000  0.000000000000000E+000                                
  0.688200000000000      -8.154000000000000E-003  0.603418000000000             
  0.000000000000000E+000  0.000000000000000E+000  0.000000000000000E+000        
  0.000000000000000E+000  0.000000000000000E+000                                
  0.238400000000000       2.381000000000000E-003  0.378765000000000             
  0.000000000000000E+000   1.00000000000000       0.000000000000000E+000        
  0.000000000000000E+000  0.000000000000000E+000                                
   7.84500000000000       0.000000000000000E+000  0.000000000000000E+000        
  0.000000000000000E+000  0.000000000000000E+000   1.00000000000000             
  0.000000000000000E+000  0.000000000000000E+000                                
   21.0320000000000       0.000000000000000E+000  0.000000000000000E+000        
  0.000000000000000E+000  0.000000000000000E+000  0.000000000000000E+000        
   1.00000000000000       0.000000000000000E+000                                
  7.376000000000001E-002  0.000000000000000E+000  0.000000000000000E+000        
  0.000000000000000E+000  0.000000000000000E+000  0.000000000000000E+000        
  0.000000000000000E+000   1.00000000000000                                     
    8    6                                                                      
   34.4600000000000       1.592800000000000E-002  0.000000000000000E+000        
  0.000000000000000E+000  0.000000000000000E+000  0.000000000000000E+000        
  0.000000000000000E+000                                                        
   7.74900000000000       9.974000000000000E-002  0.000000000000000E+000        
  0.000000000000000E+000  0.000000000000000E+000  0.000000000000000E+000        
  0.000000000000000E+000                                                        
   2.28000000000000       0.310492000000000       0.000000000000000E+000        
  0.000000000000000E+000  0.000000000000000E+000  0.000000000000000E+000        
  0.000000000000000E+000                                                        
  0.715600000000000       0.491026000000000        1.00000000000000             
  0.000000000000000E+000  0.000000000000000E+000  0.000000000000000E+000        
  0.000000000000000E+000                                                        
  0.214000000000000       0.336337000000000       0.000000000000000E+000        
   1.00000000000000       0.000000000000000E+000  0.000000000000000E+000        
  0.000000000000000E+000                                                        
   15.1590000000000       0.000000000000000E+000  0.000000000000000E+000        
  0.000000000000000E+000   1.00000000000000       0.000000000000000E+000        
  0.000000000000000E+000                                                        
   57.4370000000000       0.000000000000000E+000  0.000000000000000E+000        
  0.000000000000000E+000  0.000000000000000E+000   1.00000000000000             
  0.000000000000000E+000                                                        
  5.974000000000000E-002  0.000000000000000E+000  0.000000000000000E+000        
  0.000000000000000E+000  0.000000000000000E+000  0.000000000000000E+000        
   1.00000000000000                                                             
    4    4                                                                      
   2.31400000000000        1.00000000000000       0.000000000000000E+000        
  0.000000000000000E+000  0.000000000000000E+000                                
  0.645000000000000       0.000000000000000E+000   1.00000000000000             
  0.000000000000000E+000  0.000000000000000E+000                                
   15.8580000000000       0.000000000000000E+000  0.000000000000000E+000        
   1.00000000000000       0.000000000000000E+000                                
  0.214000000000000       0.000000000000000E+000  0.000000000000000E+000        
  0.000000000000000E+000   1.00000000000000                                     
    2    2                                                                      
   1.42800000000000        1.00000000000000       0.000000000000000E+000        
  0.500000000000000       0.000000000000000E+000   1.00000000000000             
          1.00000000    1    3    1    1    1                                   
H #2  -3.533095273711433  -3.110556967673275   0.000000000000000                
    6    4                                                                      
   33.8700000000000       6.068000000000000E-003  0.000000000000000E+000        
  0.000000000000000E+000  0.000000000000000E+000                                
   5.09500000000000       4.530800000000000E-002  0.000000000000000E+000        
  0.000000000000000E+000  0.000000000000000E+000                                
   1.15900000000000       0.202822000000000       0.000000000000000E+000        
  0.000000000000000E+000  0.000000000000000E+000                                
  0.325800000000000       0.503903000000000        1.00000000000000             
  0.000000000000000E+000  0.000000000000000E+000                                
  0.102700000000000       0.383421000000000       0.000000000000000E+000        
   1.00000000000000       0.000000000000000E+000                                
  2.526000000000000E-002  0.000000000000000E+000  0.000000000000000E+000        
  0.000000000000000E+000   1.00000000000000                                     
    3    3                                                                      
   1.40700000000000        1.00000000000000       0.000000000000000E+000        
  0.000000000000000E+000                                                        
  0.388000000000000       0.000000000000000E+000   1.00000000000000             
  0.000000000000000E+000                                                        
  0.102000000000000       0.000000000000000E+000  0.000000000000000E+000        
   1.00000000000000                                                             
    2    2                                                                      
   1.05700000000000        1.00000000000000       0.000000000000000E+000        
  0.247000000000000       0.000000000000000E+000   1.00000000000000             
         17.00000000    1    4    1    1    1    1                              
CL#3   1.062800783363967  -0.040582230814098   0.000000000000000                
   18    8                                                                      
   456100.000000000       4.930000000000000E-005 -1.380000000000000E-005        
  4.200000000000000E-006  0.000000000000000E+000  0.000000000000000E+000        
  0.000000000000000E+000  0.000000000000000E+000  0.000000000000000E+000        
   68330.0000000000       3.830000000000000E-004 -1.073000000000000E-004        
  3.240000000000000E-005  0.000000000000000E+000  0.000000000000000E+000        
  0.000000000000000E+000  0.000000000000000E+000  0.000000000000000E+000        
   15550.0000000000       2.008500000000000E-003 -5.651000000000000E-004        
  1.711000000000000E-004  0.000000000000000E+000  0.000000000000000E+000        
  0.000000000000000E+000  0.000000000000000E+000  0.000000000000000E+000        
   4405.00000000000       8.385600000000000E-003 -2.361400000000000E-003        
  7.142000000000000E-004  0.000000000000000E+000  0.000000000000000E+000        
  0.000000000000000E+000  0.000000000000000E+000  0.000000000000000E+000        
   1439.00000000000       2.947030000000000E-002 -8.458900000000000E-003        
  2.567000000000000E-003  0.000000000000000E+000  0.000000000000000E+000        
  0.000000000000000E+000  0.000000000000000E+000  0.000000000000000E+000        
   520.400000000000       8.783249999999999E-002 -2.596380000000000E-002        
  7.885500000000000E-003  0.000000000000000E+000  0.000000000000000E+000        
  0.000000000000000E+000  0.000000000000000E+000  0.000000000000000E+000        
   203.100000000000       0.211473000000000      -6.863619999999999E-002        
  2.108670000000000E-002  0.000000000000000E+000  0.000000000000000E+000        
  0.000000000000000E+000  0.000000000000000E+000  0.000000000000000E+000        
   83.9600000000000       0.365364000000000      -0.141874000000000             
  4.422640000000000E-002  0.000000000000000E+000  0.000000000000000E+000        
  0.000000000000000E+000  0.000000000000000E+000  0.000000000000000E+000        
   36.2000000000000       0.340884000000000      -0.199319000000000             
  6.516700000000000E-002  0.000000000000000E+000  0.000000000000000E+000        
  0.000000000000000E+000  0.000000000000000E+000  0.000000000000000E+000        
   15.8300000000000       0.102133000000000      -1.956620000000000E-002        
  6.030100000000000E-003  0.000000000000000E+000  0.000000000000000E+000        
  0.000000000000000E+000  0.000000000000000E+000  0.000000000000000E+000        
   6.33400000000000       3.116800000000000E-003  0.499741000000000             
 -0.206495000000000       0.000000000000000E+000  0.000000000000000E+000        
  0.000000000000000E+000  0.000000000000000E+000  0.000000000000000E+000        
   2.69400000000000       1.057500000000000E-003  0.563736000000000             
 -0.405871000000000       0.000000000000000E+000  0.000000000000000E+000        
  0.000000000000000E+000  0.000000000000000E+000  0.000000000000000E+000        
  0.976800000000000      -3.780000000000000E-004  7.903250000000001E-002        
  7.595580000000000E-002   1.00000000000000       0.000000000000000E+000        
  0.000000000000000E+000  0.000000000000000E+000  0.000000000000000E+000        
  0.431300000000000       1.561000000000000E-004 -8.350900000000000E-003        
  0.725661000000000       0.000000000000000E+000  0.000000000000000E+000        
  0.000000000000000E+000  0.000000000000000E+000  0.000000000000000E+000        
  0.162500000000000      -5.140000000000000E-005  2.324600000000000E-003        
  0.394423000000000       0.000000000000000E+000   1.00000000000000             
  0.000000000000000E+000  0.000000000000000E+000  0.000000000000000E+000        
   15.0640000000000       0.000000000000000E+000  0.000000000000000E+000        
  0.000000000000000E+000  0.000000000000000E+000  0.000000000000000E+000        
   1.00000000000000       0.000000000000000E+000  0.000000000000000E+000        
   2.87400000000000       0.000000000000000E+000  0.000000000000000E+000        
  0.000000000000000E+000  0.000000000000000E+000  0.000000000000000E+000        
  0.000000000000000E+000   1.00000000000000       0.000000000000000E+000        
  5.910000000000000E-002  0.000000000000000E+000  0.000000000000000E+000        
  0.000000000000000E+000  0.000000000000000E+000  0.000000000000000E+000        
  0.000000000000000E+000  0.000000000000000E+000   1.00000000000000             
   12    7                                                                      
   663.300000000000       2.404500000000000E-003 -6.521000000000000E-004        
  0.000000000000000E+000  0.000000000000000E+000  0.000000000000000E+000        
  0.000000000000000E+000  0.000000000000000E+000                                
   156.800000000000       1.921480000000000E-002 -5.194500000000000E-003        
  0.000000000000000E+000  0.000000000000000E+000  0.000000000000000E+000        
  0.000000000000000E+000  0.000000000000000E+000                                
   49.9800000000000       8.850970000000000E-002 -2.469380000000000E-002        
  0.000000000000000E+000  0.000000000000000E+000  0.000000000000000E+000        
  0.000000000000000E+000  0.000000000000000E+000                                
   18.4200000000000       0.256020000000000      -7.281670000000000E-002        
  0.000000000000000E+000  0.000000000000000E+000  0.000000000000000E+000        
  0.000000000000000E+000  0.000000000000000E+000                                
   7.24000000000000       0.436927000000000      -0.134030000000000             
  0.000000000000000E+000  0.000000000000000E+000  0.000000000000000E+000        
  0.000000000000000E+000  0.000000000000000E+000                                
   2.92200000000000       0.350334000000000      -9.477420000000000E-002        
  0.000000000000000E+000  0.000000000000000E+000  0.000000000000000E+000        
  0.000000000000000E+000  0.000000000000000E+000                                
   1.02200000000000       5.854950000000000E-002  0.262289000000000             
   1.00000000000000       0.000000000000000E+000  0.000000000000000E+000        
  0.000000000000000E+000  0.000000000000000E+000                                
  0.381800000000000      -4.584200000000000E-003  0.564667000000000             
  0.000000000000000E+000  0.000000000000000E+000  0.000000000000000E+000        
  0.000000000000000E+000  0.000000000000000E+000                                
  0.130100000000000       2.269700000000000E-003  0.341250000000000             
  0.000000000000000E+000   1.00000000000000       0.000000000000000E+000        
  0.000000000000000E+000  0.000000000000000E+000                                
   9.48000000000000       0.000000000000000E+000  0.000000000000000E+000        
  0.000000000000000E+000  0.000000000000000E+000   1.00000000000000             
  0.000000000000000E+000  0.000000000000000E+000                                
   3.66800000000000       0.000000000000000E+000  0.000000000000000E+000        
  0.000000000000000E+000  0.000000000000000E+000  0.000000000000000E+000        
   1.00000000000000       0.000000000000000E+000                                
  4.190000000000000E-002  0.000000000000000E+000  0.000000000000000E+000        
  0.000000000000000E+000  0.000000000000000E+000  0.000000000000000E+000        
  0.000000000000000E+000   1.00000000000000                                     
    5    5                                                                      
   1.04600000000000        1.00000000000000       0.000000000000000E+000        
  0.000000000000000E+000  0.000000000000000E+000  0.000000000000000E+000        
  0.344000000000000       0.000000000000000E+000   1.00000000000000             
  0.000000000000000E+000  0.000000000000000E+000  0.000000000000000E+000        
   17.9570000000000       0.000000000000000E+000  0.000000000000000E+000        
   1.00000000000000       0.000000000000000E+000  0.000000000000000E+000        
   5.76000000000000       0.000000000000000E+000  0.000000000000000E+000        
  0.000000000000000E+000   1.00000000000000       0.000000000000000E+000        
  0.135000000000000       0.000000000000000E+000  0.000000000000000E+000        
  0.000000000000000E+000  0.000000000000000E+000   1.00000000000000             
    3    3                                                                      
  0.706000000000000        1.00000000000000       0.000000000000000E+000        
  0.000000000000000E+000                                                        
   11.7790000000000       0.000000000000000E+000   1.00000000000000             
  0.000000000000000E+000                                                        
  0.312000000000000       0.000000000000000E+000  0.000000000000000E+000        
   1.00000000000000                                                             
FINISH                                                                          
 
********************************************************************************
 ONE- AND TWO-ELECTRON INTEGRALS OVER SYMMETRY-ADAPTED AOS ARE CALCULATED.

  SPHERICAL HARMONICS ARE USED.
  
  INTEGRALS LESS THAN  0.10E-13 ARE NEGLECTED.

  NUCLEAR REPULSION ENERGY :   48.0086149218 A.U.
  @MOLECU-I, ONE ELECTRON INTEGRALS (CPU/WALL):        0.04/       0.05 SECONDS.
  @TWOEL-I,   14000640 INTEGRALS OF SYMMETRY TYPE  I I I I
  @TWOEL-I,   13127016 INTEGRALS OF SYMMETRY TYPE  I J I J
  @TWOEL-I,    6804122 INTEGRALS OF SYMMETRY TYPE  I I J J
  @TWOEL-I, TOTAL NUMBER OF 2-E INTEGRALS   33931778.
  @MOLECU-I, TWO ELECTRON INTEGRALS (CPU/WALL):       53.74/       8.40 SECONDS.
 @CHECKOUT-I, Total execution time (CPU/WALL):       53.80/       8.47 seconds.

Running with 14 threads/proc

--executable xvmol finished with status     0 in        8.51 seconds (walltime).
 --invoking executable--
/home/asmola/.local/bin/xvmol2ja
 @GETMEM-I,  Allocated    3814 MB of main memory.
 @CHECKOUT-I, Total execution time (CPU/WALL):        0.07/       0.02 seconds.
--executable xvmol2ja finished with status     0 in        0.06 seconds (walltime).
 --invoking executable--
/home/asmola/.local/bin/xvscf
  There are  157 functions in the AO basis.

  There are 2 irreducible representations.

       Irrep        # of functions
         1                104
         2                 53


  Parameters for SCF calculation: 
        SCF reference function:  RHF  
  Maximum number of iterations:  150
     Full symmetry point group: C s 
     Computational point group: C s 
        Initial density matrix: MOREAD                 
     SCF convergence tolerance: 10**(-10)
  DIIS convergence acceleration:  ON
          Latest start for DIIS:   8
                     DIIS order:   6

  Memory information:    1209746 words required.
  Fock matrices are constructed from AO integral file.
 @GETMEM-I,  Allocated       9 MB of main memory.
  Initialization and symmetry analysis required      0.001 seconds.

  @INITGES-I, Occupancies from core Hamiltonian:

          Alpha population by irrep:  10    3
           Beta population by irrep:  10    3


 total no. of electrons in initial guess :  0.000000000000000E+000
  --------------------------------------------------------------------
  Iteration         Total Energy            Largest Density Difference
  --------------------------------------------------------------------
       0            48.008614921769464              0.0000000000D+00
   current occupation vector 
    10  3
    10  3
       1          -366.592261702636279              0.1324982159D+02
   current occupation vector 
    10  3
    10  3
       2          -344.238143135140376              0.1320833151D+02
   current occupation vector 
    10  3
    10  3
       3          -422.549425348502155              0.1066029295D+02
   current occupation vector 
    10  3
    10  3
       4          -341.175334155816813              0.1067120423D+02
   current occupation vector 
    10  3
    10  3
       5          -422.289893555230378              0.1061066159D+02
   current occupation vector 
    10  3
    10  3
       6          -341.079769605006163              0.1061100508D+02
   current occupation vector 
    10  3
    10  3
       7          -422.281464847192410              0.1060894103D+02
   current occupation vector 
    10  3
    10  3
       8          -341.076861745579663              0.1060895082D+02
   current occupation vector 
    10  3
    10  3
       9          -445.131545234365376              0.8445873193D+01
   current occupation vector 
    10  3
    10  3
      10          -460.754642174286005              0.1706983373D+01
   current occupation vector 
    10  3
    10  3
      11          -463.744175216743088              0.3374214864D+00
   current occupation vector 
    10  3
    10  3
      12          -463.924207852432687              0.8001935973D-01
   current occupation vector 
    10  3
    10  3
      13          -469.263393232387557              0.6076464117D+00
   current occupation vector 
    10  3
    10  3
      14          -468.507903894271408              0.7396748885D-01
   current occupation vector 
    10  3
    10  3
      15          -396.498553945094272              0.7450138187D+01
   current occupation vector 
    10  3
    10  3
      16          -486.720856683824650              0.7450166613D+01
   current occupation vector 
    10  3
    10  3
      17          -522.726238888295143              0.1998941590D+01
   current occupation vector 
    10  3
    10  3
      18          -528.901940218285176              0.3640738274D+00
   current occupation vector 
    10  3
    10  3
      19          -534.242802605669795              0.1163702609D+01
   current occupation vector 
    10  3
    10  3
      20          -534.483421509247592              0.7526592490D+00
   current occupation vector 
    10  3
    10  3
      21          -534.684387598832473              0.4950195599D+00
   current occupation vector 
    10  3
    10  3
      22          -534.705692890314026              0.2357422252D+00
   current occupation vector 
    10  3
    10  3
      23          -534.709284212616353              0.5730854695D-01
   current occupation vector 
    10  3
    10  3
      24          -534.711053518691983              0.6750342241D-01
   current occupation vector 
    10  3
    10  3
      25          -534.711192134033581              0.1853223131D-01
   current occupation vector 
    10  3
    10  3
      26          -534.711206869072726              0.5921758178D-02
   current occupation vector 
    10  3
    10  3
      27          -534.711207740676286              0.1156940438D-02
   current occupation vector 
    10  3
    10  3
      28          -534.711207892458560              0.3295435761D-03
   current occupation vector 
    10  3
    10  3
      29          -534.711207923210850              0.2210408358D-03
   current occupation vector 
    10  3
    10  3
      30          -534.711207929496027              0.1232749795D-03
   current occupation vector 
    10  3
    10  3
      31          -534.711207930262731              0.4111576695D-04
   current occupation vector 
    10  3
    10  3
      32          -534.711207930402679              0.1548565565D-04
   current occupation vector 
    10  3
    10  3
      33          -534.711207930432352              0.6235641817D-05
   current occupation vector 
    10  3
    10  3
      34          -534.711207930428486              0.2499672953D-05
   current occupation vector 
    10  3
    10  3
      35          -534.711207930430646              0.1303214906D-05
   current occupation vector 
    10  3
    10  3
      36          -534.711207930433147              0.4544451422D-06
   current occupation vector 
    10  3
    10  3
      37          -534.711207930427804              0.2861103816D-06
   current occupation vector 
    10  3
    10  3
      38          -534.711207930430191              0.7491074126D-07
   current occupation vector 
    10  3
    10  3
      39          -534.711207930430078              0.6272359807D-07
   current occupation vector 
    10  3
    10  3
      40          -534.711207930424507              0.2441305651D-07
   current occupation vector 
    10  3
    10  3
      41          -534.711207930431556              0.5066720335D-08
   current occupation vector 
    10  3
    10  3
      42          -534.711207930429168              0.1027732233D-08
   current occupation vector 
    10  3
    10  3
      43          -534.711207930430305              0.4521530927D-09
   current occupation vector 
    10  3
    10  3
      44          -534.711207930427122              0.3374758042D-09
   current occupation vector 
    10  3
    10  3
      45          -534.711207930425985              0.1731272833D-09
   current occupation vector 
    10  3
    10  3

  SCF has converged.

 Density matrix saved to file den.dat
 total electron number:   26.0000000000002     
     E(SCF)=      -534.711207930429282              0.5112595763D-10

  Eigenvector printing suppressed.

 @PUTMOS-I, Writing converged MOs to NEWMOS. 
 @PUTMOS-I, Symmetry   1 Full Blocks 26 Partial Blocksize   0
 @PUTMOS-I, Symmetry   2 Full Blocks 13 Partial Blocksize   1
 @PUTFOCK-I, Writing converged Fock matrix to NEWFOCK. 
 @PUTFOCK-I, Symmetry   1 Full Blocks 26 Partial Blocksize   0
 @PUTFOCK-I, Symmetry   2 Full Blocks 13 Partial Blocksize   1


 
  ORBITAL EIGENVALUES (ALPHA)  (1H = 27.2113834 eV)

       MO #        E(hartree)               E(eV)           FULLSYM    COMPSYM
       ----   --------------------   --------------------   -------   ---------
    1     1        -104.8868445617       -2854.1161409859     A'        A'  (1)
    2     2         -20.6732853028        -562.5486925123     A'        A'  (1)
    3     3         -10.6062827835        -288.6116272717     A'        A'  (1)
    4     4          -8.0728487224        -219.6733817163     A'        A'  (1)
    5     5          -8.0708662526        -219.6194359691     A'        A'  (1)
    6   105          -8.0705985420        -219.6121511932     A''       A'' (2)
    7     6          -1.3483403052         -36.6902049995     A'        A'  (1)
    8     7          -1.0261741619         -27.9236185553     A'        A'  (1)
    9   106          -0.6026921418         -16.4000869435     A''       A'' (2)
   10     8          -0.5929524111         -16.1350553951     A'        A'  (1)
   11     9          -0.5579465514         -15.1824975258     A'        A'  (1)
   12   107          -0.4352255500         -11.8430893071     A''       A'' (2)
   13    10          -0.4055606036         -11.0358650762     A'        A'  (1)
  +++++++++++++++++++++++++++++++++++++++++++++++++++++++++++++++++++++++++++++
   14    11          -0.0702708266          -1.9121664031     A'        A'  (1)
   15    12           0.0514017115           1.3987116797     A'        A'  (1)
   16    13           0.0778576169           2.1186134653     A'        A'  (1)
   17   108           0.1177520238           3.2041954661     A''       A'' (2)
   18    14           0.1179221387           3.2088245282     A'        A'  (1)
   19    15           0.1451481814           3.9496828139     A'        A'  (1)
   20    16           0.1629440073           4.4339318561     A'        A'  (1)
   21    17           0.1762197501           4.7951831816     A'        A'  (1)
   22   109           0.1896312240           5.1601279403     A''       A'' (2)
   23    18           0.2253692742           6.1326097258     A'        A'  (1)
   24   110           0.2424349339           6.5969899362     A''       A'' (2)
   25    19           0.2717105683           7.3936204465     A'        A'  (1)
   26    20           0.3003923092           8.1740902952     A'        A'  (1)
   27    21           0.3413449083           9.2884671704     A'        A'  (1)
   28   111           0.3658501045           9.9552874604     A''       A'' (2)
   29    22           0.3835592064          10.4371766214     A'        A'  (1)
   30   112           0.4255500463          11.5798054660     A''       A'' (2)
   31    23           0.4551147203          12.3843011444     A'        A'  (1)
   32    24           0.5088801256          13.8473322037     A'        A'  (1)
   33    25           0.5854648488          15.9313084670     A'        A'  (1)
   34   113           0.6188684090          16.8402655515     A''       A'' (2)
   35    26           0.6324551917          17.2099807036     A'        A'  (1)
   36    27           0.6630424678          18.0423028019     A'        A'  (1)
   37   114           0.7250274137          19.7289989298     A''       A'' (2)
   38    28           0.7451984439          20.2778805651     A'        A'  (1)
   39    29           0.7659564960          20.8427358794     A'        A'  (1)
   40   115           0.7793763596          21.2079089340     A''       A'' (2)
   41    30           0.7863228349          21.3969321373     A'        A'  (1)
   42   116           0.8071967623          21.9649405777     A''       A'' (2)
   43    31           0.8186504123          22.2766102396     A'        A'  (1)
   44   117           0.8797790441          23.9400048775     A''       A'' (2)
   45    32           0.9077062652          24.6999431962     A'        A'  (1)
   46   118           0.9343591650          25.4252054725     A''       A'' (2)
   47    33           0.9519590580          25.9041229095     A'        A'  (1)
   48   119           0.9753812421          26.5414729405     A''       A'' (2)
   49    34           0.9878899199          26.8818513662     A'        A'  (1)
   50    35           1.0030160600          27.2934545639     A'        A'  (1)
   51    36           1.0139448097          27.5908409622     A'        A'  (1)
   52    37           1.0333908471          28.1199945420     A'        A'  (1)
   53   120           1.0638581380          28.9490516751     A''       A'' (2)
   54    38           1.0877169969          29.5982842334     A'        A'  (1)
   55    39           1.1442990733          31.1379608069     A'        A'  (1)
   56   121           1.1547998073          31.4237003062     A''       A'' (2)
   57    40           1.1977139160          32.5914525725     A'        A'  (1)
   58   122           1.2461363421          33.9090937724     A''       A'' (2)
   59    41           1.2746551810          34.6851308330     A'        A'  (1)
   60   123           1.3392739537          36.4434970317     A''       A'' (2)
   61    42           1.4500420947          39.4576513860     A'        A'  (1)
   62   124           1.5229889030          41.4426349534     A''       A'' (2)
   63    43           1.5265691262          41.5400577785     A'        A'  (1)
   64    44           1.6225822633          44.1527080646     A'        A'  (1)
   65    45           1.7179770953          46.7485334117     A'        A'  (1)
   66    46           1.7930955315          48.7926099815     A'        A'  (1)
   67   125           2.1339319116          58.0672393955     A''       A'' (2)
   68    47           2.1589785285          58.7487924923     A'        A'  (1)
   69   126           2.2219850716          60.4632876916     A''       A'' (2)
   70    48           2.2476881741          61.1627046696     A'        A'  (1)
   71   127           2.3011443182          62.6173203004     A''       A'' (2)
   72    49           2.3062230148          62.7555186615     A'        A'  (1)
   73    50           2.3163603941          63.0313707752     A'        A'  (1)
   74   128           2.3348628186          63.5348473443     A''       A'' (2)
   75    51           2.3595390916          64.2063228698     A'        A'  (1)
   76    52           2.3766484757          64.6718928802     A'        A'  (1)
   77   129           2.4342382983          66.2389916217     A''       A'' (2)
   78    53           2.4655377112          67.0906919477     A'        A'  (1)
   79   130           2.4780225413          67.4304214459     A''       A'' (2)
   80    54           2.4910277558          67.7843113224     A'        A'  (1)
   81   131           2.5076162288          68.2357066218     A''       A'' (2)
   82    55           2.5719100875          69.9852314610     A'        A'  (1)
   83    56           2.8868416556          78.5549551053     A'        A'  (1)
   84   132           2.9019802082          78.9668960632     A''       A'' (2)
   85    57           2.9493709930          80.2564648796     A'        A'  (1)
   86    58           2.9711827289          80.8499923876     A'        A'  (1)
   87   133           3.0561684623          83.1625717622     A''       A'' (2)
   88    59           3.0592938132          83.2476168834     A'        A'  (1)
   89   134           3.0913664286          84.1203571187     A''       A'' (2)
   90    60           3.1286402237          85.1346286483     A'        A'  (1)
   91    61           3.2005152293          87.0904469826     A'        A'  (1)
   92   135           3.3690749909          91.6771912814     A''       A'' (2)
   93    62           3.3715798516          91.7453520062     A'        A'  (1)
   94    63           3.3887552894          92.2127194284     A'        A'  (1)
   95   136           3.7881426113         103.0806009713     A''       A'' (2)
   96    64           3.7924799164         103.1986250413     A'        A'  (1)
   97    65           3.8137360256         103.7770331781     A'        A'  (1)
   98   137           3.8576988968         104.9733237231     A''       A'' (2)
   99    66           3.9561171696         107.6514210768     A'        A'  (1)
  100   138           4.0234802612         109.4844639902     A''       A'' (2)
  101    67           4.0760032103         110.9136860942     A'        A'  (1)
  102    68           4.1249005239         112.2442496418     A'        A'  (1)
  103   139           4.1880924801         113.9637901919     A''       A'' (2)
  104    69           4.3443940687         118.2169726443     A'        A'  (1)
  105    70           4.5890941567         124.8756005558     A'        A'  (1)
  106    71           5.1321037603         139.6516430693     A'        A'  (1)
  107    72           5.8574186931         159.3884657923     A'        A'  (1)
  108   140           6.5493732192         178.2175056967     A''       A'' (2)
  109    73           6.5863559586         179.2238571995     A'        A'  (1)
  110   141           6.6030765210         179.6788468333     A''       A'' (2)
  111    74           6.6676740749         181.4366356383     A'        A'  (1)
  112   142           6.7660300866         184.1130387812     A''       A'' (2)
  113    75           6.8264684236         185.7576495416     A'        A'  (1)
  114    76           6.9604070276         189.4023042488     A'        A'  (1)
  115   143           7.0490343223         191.8139755441     A''       A'' (2)
  116    77           7.1000990542         193.2035175409     A'        A'  (1)
  117   144           7.1635384477         194.9297912017     A''       A'' (2)
  118    78           7.2010706615         195.9510946609     A'        A'  (1)
  119    79           7.6251357981         207.4904936787     A'        A'  (1)
  120   145          10.3506404396         281.6552454369     A''       A'' (2)
  121    80          10.3567535937         281.8215928184     A'        A'  (1)
  122   146          10.3893972032         282.7098705924     A''       A'' (2)
  123    81          10.4199176632         283.5403745292     A'        A'  (1)
  124    82          10.5906158407         288.1853080835     A'        A'  (1)
  125   147          12.6796652136         345.0312315104     A''       A'' (2)
  126    83          12.7162748351         346.0274299576     A'        A'  (1)
  127    84          13.1779574145         358.5904516343     A'        A'  (1)
  128    85          18.2308939963         496.0878462575     A'        A'  (1)
  129   148          26.0409791506         708.6110677772     A''       A'' (2)
  130    86          26.1702432250         712.1285220674     A'        A'  (1)
  131    87          26.5666001187         722.9139414642     A'        A'  (1)
  132    88          28.6859318713         780.5838903358     A'        A'  (1)
  133   149          36.8985601465        1004.0608670546     A''       A'' (2)
  134    89          36.8997019646        1004.0919375040     A'        A'  (1)
  135   150          36.9007436398        1004.1202829277     A''       A'' (2)
  136    90          36.9008628892        1004.1235278680     A'        A'  (1)
  137   151          36.9076387898        1004.3079094978     A''       A'' (2)
  138    91          36.9077948247        1004.3121554230     A'        A'  (1)
  139    92          36.9130593704        1004.4554109947     A'        A'  (1)
  140   152          43.8548675929        1193.3516160269     A''       A'' (2)
  141    93          43.8642384602        1193.6066102894     A'        A'  (1)
  142    94          43.8826341615        1194.1071827694     A'        A'  (1)
  143   153          43.8927332832        1194.3819938427     A''       A'' (2)
  144    95          44.0410439178        1198.4177313824     A'        A'  (1)
  145   154          46.4850272490        1264.9218988308     A''       A'' (2)
  146    96          46.4884772695        1265.0157786616     A'        A'  (1)
  147   155          46.5099867155        1265.6010804431     A''       A'' (2)
  148    97          46.5266248520        1266.0538271560     A'        A'  (1)
  149    98          46.6133855592        1268.4147060240     A'        A'  (1)
  150   156          55.0181583517        1497.1202008704     A''       A'' (2)
  151    99          55.0600294577        1498.2595715882     A'        A'  (1)
  152   100          55.6008893164        1512.9771165701     A'        A'  (1)
  153   101         103.7550998114        2823.3198006738     A'        A'  (1)
  154   157         138.2035471770        3760.7097094725     A''       A'' (2)
  155   102         138.2970169457        3763.2531511864     A'        A'  (1)
  156   103         138.5761836303        3770.8496628727     A'        A'  (1)
  157   104         149.3513541664        4064.0569595312     A'        A'  (1)


  VSCF finished.

 @CHECKOUT-I, Total execution time (CPU/WALL):       75.01/      14.34 seconds.
--executable xvscf finished with status     0 in       14.38 seconds (walltime).
 --invoking executable--
/home/asmola/.local/bin/xvtran
 @GETMEM-I,  Allocated    3814 MB of main memory.
  Full RHF integral transformation
  Transformation of IIII integrals :
  1 pass through the AO integral file was required.
    14000640 AO integrals were read.
    15933126 MO integrals were written to HF2.
  Transformation of IIJJ integrals :
  1 pass through the AO integral file was required.
     6804122 AO integrals were read.
     7813260 MO integrals were written to HF2.
  Transformation of IJIJ integrals :
  1 pass through the AO integral file was required.
    13127016 AO integrals were read.
    15193828 MO integrals were written to HF2.
  Summary of active molecular orbitals: 
------------------------------------------------------------------------
 
  Index      Eigenvalue    Symmetry    Index      Eigenvalue    Symmetry
------------------------------------------------------------------------
     1      -104.8868446        1        80         7.1000991        1
     2       -20.6732853        1        81         7.2010707        1
     3       -10.6062828        1        82         7.6251358        1
     4        -8.0728487        1        83        10.3567536        1
     5        -8.0708663        1        84        10.4199177        1
     6        -1.3483403        1        85        10.5906158        1
     7        -1.0261742        1        86        12.7162748        1
     8        -0.5929524        1        87        13.1779574        1
     9        -0.5579466        1        88        18.2308940        1
    10        -0.4055606        1        89        26.1702432        1
    11        -8.0705985        2        90        26.5666001        1
    12        -0.6026921        2        91        28.6859319        1
    13        -0.4352256        2        92        36.8997020        1
    14        -0.0702708        1        93        36.9008629        1
    15         0.0514017        1        94        36.9077948        1
    16         0.0778576        1        95        36.9130594        1
    17         0.1179221        1        96        43.8642385        1
    18         0.1451482        1        97        43.8826342        1
    19         0.1629440        1        98        44.0410439        1
    20         0.1762198        1        99        46.4884773        1
    21         0.2253693        1       100        46.5266249        1
    22         0.2717106        1       101        46.6133856        1
    23         0.3003923        1       102        55.0600295        1
    24         0.3413449        1       103        55.6008893        1
    25         0.3835592        1       104       103.7550998        1
    26         0.4551147        1       105       138.2970169        1
    27         0.5088801        1       106       138.5761836        1
    28         0.5854648        1       107       149.3513542        1
    29         0.6324552        1       108         0.1177520        2
    30         0.6630425        1       109         0.1896312        2
    31         0.7451984        1       110         0.2424349        2
    32         0.7659565        1       111         0.3658501        2
    33         0.7863228        1       112         0.4255500        2
    34         0.8186504        1       113         0.6188684        2
    35         0.9077063        1       114         0.7250274        2
    36         0.9519591        1       115         0.7793764        2
    37         0.9878899        1       116         0.8071968        2
    38         1.0030161        1       117         0.8797790        2
    39         1.0139448        1       118         0.9343592        2
    40         1.0333908        1       119         0.9753812        2
    41         1.0877170        1       120         1.0638581        2
    42         1.1442991        1       121         1.1547998        2
    43         1.1977139        1       122         1.2461363        2
    44         1.2746552        1       123         1.3392740        2
    45         1.4500421        1       124         1.5229889        2
    46         1.5265691        1       125         2.1339319        2
    47         1.6225823        1       126         2.2219851        2
    48         1.7179771        1       127         2.3011443        2
    49         1.7930955        1       128         2.3348628        2
    50         2.1589785        1       129         2.4342383        2
    51         2.2476882        1       130         2.4780225        2
    52         2.3062230        1       131         2.5076162        2
    53         2.3163604        1       132         2.9019802        2
    54         2.3595391        1       133         3.0561685        2
    55         2.3766485        1       134         3.0913664        2
    56         2.4655377        1       135         3.3690750        2
    57         2.4910278        1       136         3.7881426        2
    58         2.5719101        1       137         3.8576989        2
    59         2.8868417        1       138         4.0234803        2
    60         2.9493710        1       139         4.1880925        2
    61         2.9711827        1       140         6.5493732        2
    62         3.0592938        1       141         6.6030765        2
    63         3.1286402        1       142         6.7660301        2
    64         3.2005152        1       143         7.0490343        2
    65         3.3715799        1       144         7.1635384        2
    66         3.3887553        1       145        10.3506404        2
    67         3.7924799        1       146        10.3893972        2
    68         3.8137360        1       147        12.6796652        2
    69         3.9561172        1       148        26.0409792        2
    70         4.0760032        1       149        36.8985601        2
    71         4.1249005        1       150        36.9007436        2
    72         4.3443941        1       151        36.9076388        2
    73         4.5890942        1       152        43.8548676        2
    74         5.1321038        1       153        43.8927333        2
    75         5.8574187        1       154        46.4850272        2
    76         6.5863560        1       155        46.5099867        2
    77         6.6676741        1       156        55.0181584        2
    78         6.8264684        1       157       138.2035472        2
    79         6.9604070        1
------------------------------------------------------------------------
  -104.886844561747       -20.6732853028089       -10.6062827835377     
  -8.07284872243242       -8.07086625258001       -1.34834030523816     
  -1.02617416192505      -0.592952411050836      -0.557946551359805     
 -0.405560603587330       -8.07059854197563      -0.602692141830633     
 -0.435225550021147      -7.027082655111305E-002  5.140171152436097E-002
  7.785761694566383E-002  0.117922138724767       0.145148181400426     
  0.162944007326995       0.176219750062759       0.225369274161640     
  0.271710568250573       0.300392309167579       0.341344908264782     
  0.383559206381600       0.455114720275820       0.508880125648836     
  0.585464848766818       0.632455191661151       0.663042467802987     
  0.745198443865630       0.765956495965853       0.786322834923819     
  0.818650412297898       0.907706265172423       0.951959058043187     
  0.987889919854664        1.00301605995998        1.01394480966445     
   1.03339084708108        1.08771699690353        1.14429907326756     
   1.19771391602700        1.27465518100155        1.45004209473601     
   1.52656912615735        1.62258226329561        1.71797709526689     
   1.79309553153640        2.15897852853277        2.24768817411941     
   2.30622301479469        2.31636039405415        2.35953909163478     
   2.37664847573158        2.46553771123927        2.49102775577290     
   2.57191008748942        2.88684165558851        2.94937099300938     
   2.97118272890162        3.05929381316928        3.12864022371991     
   3.20051522932260        3.37157985162026        3.38875528939136     
   3.79247991637451        3.81373602556798        3.95611716958212     
   4.07600321026791        4.12490052386722        4.34439406870904     
   4.58909415666726        5.13210376026964        5.85741869310287     
   6.58635595864146        6.66767407489676        6.82646842356487     
   6.96040702762782        7.10009905416804        7.20107066151154     
   7.62513579808348        10.3567535937320        10.4199176631802     
   10.5906158407020        12.7162748350959        13.1779574144796     
   18.2308939962783        26.1702432250234        26.5666001186930     
   28.6859318712833        36.8997019645827        36.9008628891671     
   36.9077948246836        36.9130593703934        43.8642384601962     
   43.8826341614591        44.0410439177583        46.4884772694656     
   46.5266248520080        46.6133855592226        55.0600294576774     
   55.6008893164226        103.755099811420        138.297016945723     
   138.576183630291        149.351354166403       0.117752023814547     
  0.189631223978221       0.242434933910933       0.365850104498055     
  0.425550046308812       0.618868409002814       0.725027413704430     
  0.779376359602819       0.807196762282390       0.879779044144624     
  0.934359165014189       0.975381242119273        1.06385813795483     
   1.15479980728352        1.24613634205750        1.33927395369698     
   1.52298890299823        2.13393191157917        2.22198507157257     
   2.30114431816654        2.33486281863666        2.43423829829000     
   2.47802254132649        2.50761622879437        2.90198020815208     
   3.05616846228275        3.09136642860534        3.36907499092298     
   3.78814261134852        3.85769889681935        4.02348026121167     
   4.18809248014407        6.54937321917601        6.60307652102909     
   6.76603008655688        7.04903432230773        7.16353844772447     
   10.3506404395780        10.3893972032454        12.6796652135800     
   26.0409791505578        36.8985601465088        36.9007436398013     
   36.9076387897931        43.8548675929104        43.8927332831857     
   46.4850272489553        46.5099867154536        55.0181583517138     
   138.203547176969     
 @CHECKOUT-I, Total execution time (CPU/WALL):       34.03/      19.37 seconds.
--executable xvtran finished with status     0 in       19.43 seconds (walltime).
 --invoking executable--
/home/asmola/.local/bin/xintprc
 @GETMEM-I,  Allocated    3814 MB of main memory.
  Processing integrals for CCSD calculation.
  @GMOIAA-I, Processing MO integrals for spin case AA.
  @GMOIAA-I, Generation of integral list completed.
                      TYPE                NUMBER
                      ----               --------
                      PPPP              27524020
                      PPPH               9932000
                      PPHH                900748
                      PHPH                491140
                      PHHH                 89950
                      HHHH                  2356

                     TOTAL              38940214

  @FORMT2-I, Second-order MP correlation energies:
            ------------------------------------------------
            E(SCF)                  =   -534.711207930429 a.u.
            E2(AA)                  =     -0.112635271853 a.u.
            E2(AB)                  =     -0.674482509889 a.u.
            E2(TOT)                 =     -0.899753053596 a.u.
            Total MP2 energy        =   -535.610960984025 a.u.
            ------------------------------------------------
   Largest T2 amplitudes for spin case AB:
       _       _                 _       _                 _       _
   i   j   a   b             i   j   a   b             i   j   a   b
-----------------------------------------------------------------------------
[ 10  10  14  14]-0.13505 [ 10   9  14  14]-0.07547 [  9  10  14  14]-0.07547
[  9   9  14  14]-0.06881 [  8   8  19  19]-0.04209 [  9   8  14  19]-0.03331
[  8   9  19  14]-0.03331 [ 10  10  15  14] 0.03124 [ 10  10  14  15] 0.03124
[  8   8  19  16] 0.02831 [  8   8  16  19] 0.02831 [ 10  10  16  14]-0.02372
[ 10  10  14  16]-0.02372 [ 10  10  23  14] 0.02317 [ 10  10  14  23] 0.02317
-----------------------------------------------------------------------------
   Norm of T2AB vector (  1799624 symmetry allowed elements):  0.4078662948.
-----------------------------------------------------------------------------
 @CHECKOUT-I, Total execution time (CPU/WALL):        6.95/       9.55 seconds.
--executable xintprc finished with status     0 in        9.71 seconds (walltime).
  calling xvcc 
 --invoking executable--
/home/asmola/.local/bin/xvcc
 @GETMEM-I,  Allocated    3814 MB of main memory.
   CCSD energy will be calculated.
   The total correlation energy is -0.899753053596 a.u.
   The total correlation energy is -0.878263791463 a.u.
  Convergence information after     1 iterations: 
  Largest element of residual vector :  0.39455748E-01.
  Largest element of DIIS residual   :  0.39455748E-01.
   The total correlation energy is -0.911126996162 a.u.
  Convergence information after     2 iterations: 
  Largest element of residual vector : -0.46296188E-01.
  Largest element of DIIS residual   : -0.37071484E-01.
   The total correlation energy is -0.908010055498 a.u.
  Convergence information after     3 iterations: 
  Largest element of residual vector : -0.19600131E-01.
  Largest element of DIIS residual   :  0.17605941E-01.
   The total correlation energy is -0.912985875150 a.u.
  Convergence information after     4 iterations: 
  Largest element of residual vector : -0.85106896E-02.
  Largest element of DIIS residual   : -0.25956933E-02.
   The total correlation energy is -0.914688823958 a.u.
  Convergence information after     5 iterations: 
  Largest element of residual vector :  0.36192509E-02.
  Largest element of DIIS residual   :  0.12262455E-02.
   The total correlation energy is -0.914799924629 a.u.
  Convergence information after     6 iterations: 
  Largest element of residual vector :  0.10741549E-02.
  Largest element of DIIS residual   :  0.92954922E-03.
   The total correlation energy is -0.914791771553 a.u.
  Convergence information after     7 iterations: 
  Largest element of residual vector :  0.54036779E-03.
  Largest element of DIIS residual   :  0.51043229E-03.
   The total correlation energy is -0.914817413335 a.u.
  Convergence information after     8 iterations: 
  Largest element of residual vector :  0.35655097E-03.
  Largest element of DIIS residual   :  0.18568248E-03.
   The total correlation energy is -0.914803504691 a.u.
  Convergence information after     9 iterations: 
  Largest element of residual vector :  0.13544945E-03.
  Largest element of DIIS residual   :  0.71316757E-04.
   The total correlation energy is -0.914815092703 a.u.
  Convergence information after    10 iterations: 
  Largest element of residual vector : -0.45345510E-04.
  Largest element of DIIS residual   : -0.39509611E-04.
   The total correlation energy is -0.914817366814 a.u.
  Convergence information after    11 iterations: 
  Largest element of residual vector :  0.49975429E-04.
  Largest element of DIIS residual   :  0.20204827E-04.
   The total correlation energy is -0.914817532160 a.u.
  Convergence information after    12 iterations: 
  Largest element of residual vector : -0.10039061E-04.
  Largest element of DIIS residual   : -0.67815815E-05.
   The total correlation energy is -0.914818747261 a.u.
  Convergence information after    13 iterations: 
  Largest element of residual vector : -0.10137571E-04.
  Largest element of DIIS residual   : -0.83670850E-05.
   The total correlation energy is -0.914819254553 a.u.
  Convergence information after    14 iterations: 
  Largest element of residual vector :  0.30092688E-05.
  Largest element of DIIS residual   : -0.26557504E-05.
   The total correlation energy is -0.914818949615 a.u.
  Convergence information after    15 iterations: 
  Largest element of residual vector :  0.23985692E-05.
  Largest element of DIIS residual   : -0.13119113E-05.
   The total correlation energy is -0.914819239419 a.u.
  Convergence information after    16 iterations: 
  Largest element of residual vector : -0.11195710E-05.
  Largest element of DIIS residual   : -0.97727508E-06.
   The total correlation energy is -0.914819121167 a.u.
  Convergence information after    17 iterations: 
  Largest element of residual vector :  0.69396514E-06.
  Largest element of DIIS residual   :  0.43570542E-06.
   The total correlation energy is -0.914819098288 a.u.
  Convergence information after    18 iterations: 
  Largest element of residual vector : -0.56569378E-06.
  Largest element of DIIS residual   : -0.32492028E-06.
   The total correlation energy is -0.914819096154 a.u.
  Convergence information after    19 iterations: 
  Largest element of residual vector : -0.22662764E-06.
  Largest element of DIIS residual   :  0.14068904E-06.
   The total correlation energy is -0.914819072686 a.u.
  Convergence information after    20 iterations: 
  Largest element of residual vector : -0.15390102E-06.
  Largest element of DIIS residual   :  0.49770817E-07.
   The total correlation energy is -0.914819065336 a.u.
  Convergence information after    21 iterations: 
  Largest element of residual vector : -0.78391321E-07.
  Largest element of DIIS residual   :  0.37573440E-07.
   The total correlation energy is -0.914819065685 a.u.
  Convergence information after    22 iterations: 
  Largest element of residual vector : -0.46530107E-07.
  Largest element of DIIS residual   : -0.13617801E-07.
   The total correlation energy is -0.914819062142 a.u.
  Convergence information after    23 iterations: 
  Largest element of residual vector : -0.17346511E-07.
  Largest element of DIIS residual   : -0.55060633E-08.
   The total correlation energy is -0.914819062316 a.u.
  Convergence information after    24 iterations: 
  Largest element of residual vector : -0.71115471E-08.
  Largest element of DIIS residual   : -0.23246801E-08.
   The total correlation energy is -0.914819061987 a.u.
  Convergence information after    25 iterations: 
  Largest element of residual vector :  0.36585494E-08.
  Largest element of DIIS residual   :  0.13409328E-08.
   The total correlation energy is -0.914819062132 a.u.
  Convergence information after    26 iterations: 
  Largest element of residual vector : -0.12215648E-08.
  Largest element of DIIS residual   :  0.10619243E-08.
[...]
 term  0.445652151088786     
 final tnorm  0.721470650368046     
  norm contr. I: |<0|L dT/dx|0>|^2   0.000000000000000E+000
  norm contr. II: <0|[nabla(1+L)e-T][nabla e^T]|0>  0.445652151088786     
  total norm contribution  0.445652151088786     
 oo  2.247084628242785E-003
 vv  -1.49126146177554     
 vo -3.454294512913062E-002
  Correlated perturbed 1-el contribution to DBOC  -1.52355732227643       cm**-1
  SUM_I |dc_I/dx|^2 contribution to DBOC  0.767405120608984       cm**-1
 
 
  The total diagonal Born-Oppenheimer correction (DBOC) is:      0.0087811014 a.u.
  The total diagonal Born-Oppenheimer correction (DBOC) is:       1927.228991 cm-1
 
 Total CC energy including DBOC  -535.617245891113     
 First-order density matrix is being calculated  (Symmetry block 2, perturbation   3)
 Calculation of the contributions of <pq||rs> to dI(i,j)/dx required   4.2 seconds.
 Calculation of the contributions of <pq||rs> to dI(a,b)/dx required  11.1 seconds.
 Calculation of the contributions of <pq||rs> to dI(i,a)/dx required   6.8 seconds.
 First-order Z-vector equations are solved for 1 perturbation.
 Convergence reached after  25 iterations.
        U*G(pq,rs) contribution is being calculated
             (Symmetry block 2, perturbation   3)

 CCSD contribution to force constants 

        0.0000000000        0.0000000000        0.0000000000
        0.0000000000        0.0000000000        0.0000000000
        0.0000000000        0.0000000000        0.0000000000
        0.0000000000        0.0000000000        0.0000000000
        0.0000000000        0.0000000000        0.0000000000
        0.0000000000        0.0000000000        0.0000000000
        0.0000000000        0.0000000000        0.0000000000
        0.0000000000        0.0000000000        0.0000000000
        0.0000000000        0.0000000000        0.0000000000
        0.0000000000        0.0000000000        0.0000000000
        0.0000000000        0.0000000000        0.0000000000
        0.0000000000        0.0000000000        0.0000000000
        0.0000000000        0.0000000000        0.0000000000
        0.0000000000        0.0000000000        0.0000000000
        0.0000000000        0.0000000000        0.0000000000
        0.0000000000        0.0000000000        0.0000000000
        0.0000000000        0.0000000000        0.0000000000
        0.0000000000        0.0000000000        0.0000000000
        0.0000000000        0.0000000000        0.0000000000
        0.0000000000        0.0000000000        0.0000000000
        0.0000000000        0.0000000000        0.0000000000
        0.0000000000        0.0000000000        0.0000000000
        0.0000000000        0.0000000000        0.0000000000
        0.0000000000        0.0000000000        0.0000000000
        0.0000000000        0.0000000000        0.0000000000
        0.0000000000        0.0000000000        0.0000000000
        0.0697794733        0.0056554189       -0.0754348922

 CCSD contribution to dipole derivatives 

        0.0000000000        0.0000000000        0.0000000000
        0.0000000000        0.0000000000        0.0000000000
        0.0000000000        0.0000000000        0.0000000000
        0.0000000000        0.0000000000        0.0000000000
        0.0000000000        0.0000000000        0.0000000000
        0.0000000000        0.0000000000        0.0000000000
        0.0000000000        0.0000000000        0.0000000000
        0.0000000000        0.0000000000        0.0000000000
        0.0000000000        0.0000000000        0.0259603639
 @CHECKOUT-I, Total execution time (CPU/WALL):     1109.61/     281.63 seconds.
--executable xsdcc finished with status     0 in      281.81 seconds (walltime).
 --invoking executable--
/home/asmola/.local/bin/xanti
 @GETMEM-I,  Allocated    3814 MB of main memory.
 CCSD MO derivative gammas will be sorted to Mulliken order.
 @CHECKOUT-I, Total execution time (CPU/WALL):        6.27/       4.84 seconds.
--executable xanti finished with status     0 in        4.97 seconds (walltime).
 --invoking executable--
/home/asmola/.local/bin/xbcktrn
 @GETMEM-I,  Allocated    3814 MB of main memory.
 CCSD MO derivative gammas will be transformed to the AO basis.
 @CHECKOUT-I, Total execution time (CPU/WALL):       12.37/       2.14 seconds.
--executable xbcktrn finished with status     0 in        2.18 seconds (walltime).
 --invoking executable--
/home/asmola/.local/bin/xvdint
 @GETMEM-I,  Allocated    3814 MB of main memory.
 One- and two-electron integral derivatives are calculated
 for RHF-CC/MBPT hessians and dipole derivatives.
 Spherical gaussians are used.
  magnet F F
 Evaluation of 2el integral derivatives

                      Two-electron integral gradient
                      ------------------------------

                         O #1 x     0.0000000000
                         O #1 y     0.0000000000
                         H #2 x     0.0000000000
                         H #2 y     0.0000000000
                         CL#3 x     0.0000000000
                         CL#3 y     0.0000000000


 O #1       0.0000000000            0.0000000000           -0.0885626983
 H #2       0.0000000000            0.0000000000           -0.0006950188
 CL#3       0.0000000000            0.0000000000            0.0892577171


 Evaluation of 2e integral derivatives required  123.34 seconds.
  contribution to Hessian
        0.0000000000        0.0000000000        0.0000000000
        0.0000000000        0.0000000000        0.0000000000
       -0.0885626983       -0.0006950188        0.0892577171
 @CHECKOUT-I, Total execution time (CPU/WALL):      123.37/      21.51 seconds.
--executable xvdint finished with status     0 in       21.62 seconds (walltime).
 --invoking executable--
/home/asmola/.local/bin/xanti
 @GETMEM-I,  Allocated    3814 MB of main memory.
 CCSD MO gammas will be sorted to Mulliken order.
 @CHECKOUT-I, Total execution time (CPU/WALL):        8.56/      25.77 seconds.
--executable xanti finished with status     0 in       25.86 seconds (walltime).
 --invoking executable--
/home/asmola/.local/bin/xbcktrn
 @GETMEM-I,  Allocated    3814 MB of main memory.
 CCSD MO gammas will be transformed to the AO basis.
 @CHECKOUT-I, Total execution time (CPU/WALL):       22.93/       4.50 seconds.
--executable xbcktrn finished with status     0 in        4.59 seconds (walltime).
 --invoking executable--
/home/asmola/.local/bin/xvdint
 @GETMEM-I,  Allocated    3814 MB of main memory.
 One- and two-electron integral derivatives are calculated
 for RHF-CC/MBPT hessians and dipole derivatives.
 Spherical gaussians are used.
  magnet F F

                     Kinetic energy integral gradient
                     --------------------------------

                         O #1 x     0.3473078754
                         O #1 y    -0.0733442908
                         H #2 x     0.0214366853
                         H #2 y     0.0484747139
                         CL#3 x    -0.3687445607
                         CL#3 y     0.0248695769


 O #1       0.3473078754           -0.0733442908            0.0000000000
 H #2       0.0214366853            0.0484747139            0.0000000000
 CL#3      -0.3687445607            0.0248695769            0.0000000000



                   Nuclear attraction integral gradient
                   ------------------------------------

                         O #1 x   -26.0801444598
                         O #1 y     4.3611394657
                         H #2 x    -1.5349051522
                         H #2 y    -2.3727721825
                         CL#3 x    27.6150496120
                         CL#3 y    -1.9883672831


 O #1     -26.0801444598            4.3611394657            0.0000000000
 H #2      -1.5349051522           -2.3727721825            0.0000000000
 CL#3      27.6150496120           -1.9883672831            0.0000000000



                      Reorthonormalization gradient
                      -----------------------------

                         O #1 x     0.0000000000
                         O #1 y     0.0000000000
                         H #2 x     0.0000000000
                         H #2 y     0.0000000000
                         CL#3 x     0.0000000000
                         CL#3 y     0.0000000000


 O #1       0.0000000000            0.0000000000            0.0000000000
 H #2       0.0000000000            0.0000000000            0.0000000000
 CL#3       0.0000000000            0.0000000000            0.0000000000



                     Kinetic energy integral Hessian
                     -------------------------------


           Symmetry 1

           O #1 x      O #1 y      H #2 x      H #2 y      CL#3 x      CL#3 y

 O #1 x    0.398599
 O #1 y   -0.019600   -0.189123
 H #2 x    0.001470   -0.034238   -0.005776
 H #2 y   -0.034238   -0.049155    0.032538    0.049887
 CL#3 x   -0.400069    0.053838    0.004306    0.001700    0.395762
 CL#3 y    0.053838    0.238277    0.001700   -0.000733   -0.055538   -0.237545


           Symmetry 2

           O #1 z      H #2 z      CL#3 z

 O #1 z   -0.244009
 H #2 z    0.020251   -0.019487
 CL#3 z    0.223758   -0.000764   -0.222994




           O #1 x      O #1 y      O #1 z      H #2 x      H #2 y      H #2 z

 O #1 x    0.398599
 O #1 y   -0.019600   -0.189123
 O #1 z    0.000000    0.000000   -0.244009

 H #2 x    0.001470   -0.034238    0.000000   -0.005776
 H #2 y   -0.034238   -0.049155    0.000000    0.032538    0.049887
 H #2 z    0.000000    0.000000    0.020251    0.000000    0.000000   -0.019487

 CL#3 x   -0.400069    0.053838    0.000000    0.004306    0.001700    0.000000
 CL#3 y    0.053838    0.238277    0.000000    0.001700   -0.000733    0.000000
 CL#3 z    0.000000    0.000000    0.223758    0.000000    0.000000   -0.000764


           CL#3 x      CL#3 y      CL#3 z

 CL#3 x    0.395762
 CL#3 y   -0.055538   -0.237545
 CL#3 z    0.000000    0.000000   -0.222994




                   Nuclear attraction integral Hessian
                   -----------------------------------


           Symmetry 1

           O #1 x      O #1 y      H #2 x      H #2 y      CL#3 x      CL#3 y

 O #1 x  -14.131670
 O #1 y    1.858837    9.946958
 H #2 x   -0.367221    0.705999    0.292446
 H #2 y    0.693782    0.669870   -0.977552   -0.829587
 CL#3 x   14.498891   -2.564836    0.074775    0.283770  -14.573667
 CL#3 y   -2.552619  -10.616827    0.271554    0.159717    2.281066   10.457110


           Symmetry 2

           O #1 z      H #2 z      CL#3 z

 O #1 z   10.711224
 H #2 z   -0.746115    0.877541
 CL#3 z   -9.965109   -0.131426   10.096535




           O #1 x      O #1 y      O #1 z      H #2 x      H #2 y      H #2 z

 O #1 x  -14.131670
 O #1 y    1.858837    9.946958
 O #1 z    0.000000    0.000000   10.711224

 H #2 x   -0.367221    0.705999    0.000000    0.292446
 H #2 y    0.693782    0.669870    0.000000   -0.977552   -0.829587
 H #2 z    0.000000    0.000000   -0.746115    0.000000    0.000000    0.877541

 CL#3 x   14.498891   -2.564836    0.000000    0.074775    0.283770    0.000000
 CL#3 y   -2.552619  -10.616827    0.000000    0.271554    0.159717    0.000000
 CL#3 z    0.000000    0.000000   -9.965109    0.000000    0.000000   -0.131426


           CL#3 x      CL#3 y      CL#3 z

 CL#3 x  -14.573667
 CL#3 y    2.281066   10.457110
 CL#3 z    0.000000    0.000000   10.096535




                Highest order reorthonormalization Hessian
                ------------------------------------------


           Symmetry 1

           O #1 x      O #1 y      H #2 x      H #2 y      CL#3 x      CL#3 y

 O #1 x    0.000000
 O #1 y    0.000000    0.000000
 H #2 x    0.000000    0.000000    0.000000
 H #2 y    0.000000    0.000000    0.000000    0.000000
 CL#3 x    0.000000    0.000000    0.000000    0.000000    0.000000
 CL#3 y    0.000000    0.000000    0.000000    0.000000    0.000000    0.000000


           Symmetry 2

           O #1 z      H #2 z      CL#3 z

 O #1 z    0.000000
 H #2 z    0.000000    0.000000
 CL#3 z    0.000000    0.000000    0.000000




           O #1 x      O #1 y      O #1 z      H #2 x      H #2 y      H #2 z


           CL#3 x      CL#3 y      CL#3 z




                Electronic contributions to dipole moment
                -----------------------------------------

                               au             Debye

                    x      2.26744043      5.76325971
                    y      1.06683222      2.71161750

  Conversion factor used: 1 a.u. =   2.54174691 Debye 



   Electronic contributions to static part of dipole moment derivatives
   --------------------------------------------------------------------


                     Total dipole moment derivatives
                     -------------------------------


           Symmetry 1
                              Ex             Ey

               O #1 x    -8.54272185    -0.06912186
               O #1 y    -0.24955947    -8.60990142
               H #2 x    -0.70577330     0.03811952
               H #2 y     0.27682957    -0.62334721
               CL#3 x   -16.75150485     0.03100234
               CL#3 y    -0.02727010   -16.76675137

           Symmetry 2
                              Ez

               O #1 z    -8.34011182
               H #2 z    -0.84162170
               CL#3 z   -16.81826648



                       Ex          Ey          Ez

      O #1    x   -8.542722   -0.069122    0.000000
      O #1    y   -0.249559   -8.609901    0.000000
      O #1    z    0.000000    0.000000   -8.340112

      H #2    x   -0.705773    0.038120    0.000000
      H #2    y    0.276830   -0.623347    0.000000
      H #2    z    0.000000    0.000000   -0.841622

      CL#3    x  -16.751505    0.031002    0.000000
      CL#3    y   -0.027270  -16.766751    0.000000
      CL#3    z    0.000000    0.000000  -16.818266

 Evaluation of 1e integral derivatives required    1.64 seconds.
 Evaluation of 2el integral derivatives

                      Two-electron integral gradient
                      ------------------------------

                         O #1 x    12.4299842846
                         O #1 y    -2.2549969677
                         H #2 x     0.7818262526
                         H #2 y     1.3708111776
                         CL#3 x   -13.2118105372
                         CL#3 y     0.8841857902


 O #1      12.4299842846           -2.2549969677            0.0000000000
 H #2       0.7818262526            1.3708111776            0.0000000000
 CL#3     -13.2118105372            0.8841857902            0.0000000000


 Evaluation of 2e integral derivatives required  289.37 seconds.

                            Molecular gradient
                            ------------------

                         O #1 x    -0.1569692837
                         O #1 y     0.1147496924
                         H #2 x    -0.0398990339
                         H #2 y    -0.1015334922
                         CL#3 x     0.1968683176
                         CL#3 y    -0.0132162002


 O #1      -0.1569692837            0.1147496924            0.0000000000
 H #2      -0.0398990339           -0.1015334922            0.0000000000
 CL#3       0.1968683176           -0.0132162002            0.0000000000


  Molecular gradient norm 0.298E+00

                            Molecular hessian
                            -----------------


           Symmetry 1

           O #1 x      O #1 y      H #2 x      H #2 y      CL#3 x      CL#3 y

 O #1 x    2.007048
 O #1 y   -0.038303    0.522149
 H #2 x   -0.317038   -0.729527    0.234761
 H #2 y   -0.666796   -1.797991    0.654749    1.666528
 CL#3 x   -1.690011    1.310692   -0.044373   -0.093285    1.734383
 CL#3 y    0.705099    1.275842    0.001859    0.002254   -0.706958   -1.278096


           Symmetry 2

           O #1 z      H #2 z      CL#3 z

 O #1 z    0.202439
 H #2 z   -0.071680    0.028867
 CL#3 z   -0.130759    0.006669    0.124090




           O #1 x      O #1 y      O #1 z      H #2 x      H #2 y      H #2 z

 O #1 x    2.007048
 O #1 y   -0.038303    0.522149
 O #1 z    0.000000    0.000000    0.202439

 H #2 x   -0.317038   -0.729527    0.000000    0.234761
 H #2 y   -0.666796   -1.797991    0.000000    0.654749    1.666528
 H #2 z    0.000000    0.000000   -0.071680    0.000000    0.000000    0.028867

 CL#3 x   -1.690011    1.310692    0.000000   -0.044373   -0.093285    0.000000
 CL#3 y    0.705099    1.275842    0.000000    0.001859    0.002254    0.000000
 CL#3 z    0.000000    0.000000   -0.130759    0.000000    0.000000    0.006669


           CL#3 x      CL#3 y      CL#3 z

 CL#3 x    1.734383
 CL#3 y   -0.706958   -1.278096
 CL#3 z    0.000000    0.000000    0.124090




                           Total dipole moment
                           -------------------

                               au             Debye

                    x     -0.00547463     -0.01391511
                    y     -0.45589311     -1.15876490

  Conversion factor used: 1 a.u. =   2.54174691 Debye 



                     Total dipole moment derivatives
                     -------------------------------


           Symmetry 1
                              Ex             Ey

               O #1 x     0.35462159     0.31244615
               O #1 y     0.19779138     0.08608326
               H #2 x    -0.02871468    -0.17448263
               H #2 y    -0.28212802    -0.19783500
               CL#3 x    -0.32590681    -0.13796340
               CL#3 y     0.08433714     0.11175213

           Symmetry 2
                              Ez

               O #1 z    -0.18527721
               H #2 z     0.12850928
               CL#3 z     0.05676818



                       Ex          Ey          Ez

      O #1    x    0.354622    0.312446    0.000000
      O #1    y    0.197791    0.086083    0.000000
      O #1    z    0.000000    0.000000   -0.185277

      H #2    x   -0.028715   -0.174483    0.000000
      H #2    y   -0.282128   -0.197835    0.000000
      H #2    z    0.000000    0.000000    0.128509

      CL#3    x   -0.325907   -0.137963    0.000000
      CL#3    y    0.084337    0.111752    0.000000
      CL#3    z    0.000000    0.000000    0.056768

  Molecular gradient does not satisfy rotational invariance condition.
   rotational invariance in yz-plane :        0.0000E+00
   rotational invariance in xz-plane :        0.0000E+00
   rotational invariance in xy-plane :        -.3217E-01
 @CHECKOUT-I, Total execution time (CPU/WALL):      291.11/      41.79 seconds.
--executable xvdint finished with status     0 in       41.91 seconds (walltime).
 --invoking executable--
/home/asmola/.local/bin/xjoda
  @GTFLGS-I, Hessian will be transformed to curvilinear coordinates.
  @GTFLGS-I, Hessian will be transformed to curvilinear coordinates.
  igrd and ihes are                      0                     1
  gradient from JOBARC 
  -0.156969283694177   0.114749692370331   0.000000000000000
  -0.039899033911073  -0.101533492153020   0.000000000000000
   0.196868317605260  -0.013216200217325   0.000000000000000
 
  @PROJFCM-I, Projecting force constant matrix onto totally symmetric subspace.
  Largest difference between matrix elements of symmetrized
  and unsymmetrized FCM :     0.0000000000E+00.
 
  Summary of diagonal Born-Oppenheimer correction at the correlated level
  The total diagonal Born-Oppenheimer correction (DBOC) is:      0.0087811014 a.u.
  The total diagonal Born-Oppenheimer correction (DBOC) is:       1927.228991 cm-1
  The total diagonal Born-Oppenheimer correction (DBOC) is:            23.055 kJ/mole
  hellooooooo 
  readis is  F
 
 @CHECKOUT-I, Total execution time (CPU/WALL):        0.01/       0.05 seconds.
--executable xjoda finished with status     0 in        0.09 seconds (walltime).
  The final electronic energy is      -535.617245891112589 a.u. 
  This computation required                         2997.81 seconds (walltime).
