 --invoking executable--
/home/asmola/.local/bin/xjoda


   *************************************************************************
         <<<     CCCCCC     CCCCCC   |||     CCCCCC     CCCCCC   >>>
       <<<      CCC        CCC       |||    CCC        CCC         >>>
      <<<      CCC        CCC        |||   CCC        CCC            >>>
    <<<        CCC        CCC        |||   CCC        CCC              >>>
      <<<      CCC        CCC        |||   CCC        CCC            >>>
       <<<      CCC        CCC       |||    CCC        CCC         >>>
         <<<     CCCCCC     CCCCCC   |||     CCCCCC     CCCCCC   >>>
   *************************************************************************

     ****************************************************************
     * CFOUR Coupled-Cluster techniques for Computational Chemistry *
     ****************************************************************
 

   Department of Chemistry                Institut fuer Physikalische Chemie
   University of Florida                  Universitaet Mainz
   Gainesville, FL 32611, USA             D-55099 Mainz, Germany

   Department of Chemistry                Fakultaet fuer Chemie und Biowiss.
   Johns Hopkins University               Karlsruher Institut fuer Technologie
   Baltimore, MD 21218, USA               D-76131 Karlsruhe, Germany

   Department of Chemistry                Department of Physical Chemistry
   Southern Methodist University          Eotvos Lorand University
   Dallas, TX 75275, USA                  H-1053 Budapest, Hungary

 
                       Version 2.1
 
                     vincent.theory.phys.ucl.ac.uk                     
                     Thu 30 Jan 18:17:33 GMT 2025                      
                     integer*8 version is running
 
********************************************************************************
*                          Input from ZMAT file                                *
********************************************************************************
Hypochlorous acid DBOC calculation                                              
O                                                                               
H 1 ROH                                                                         
CL 1 ROCL 2 A                                                                   
                                                                                
ROH=1.6000000000000008                                                          
ROCL=1.683                                                                      
A=107.0                                                                         
                                                                                
                                                                                
*CFOUR(CALC=CCSD,BASIS=AUG-PCVTZ,SCF_CONV=10                                    
CC_CONV=10,DBOC=ON,MEMORY=500000000)                                            
********************************************************************************
  @GTFLGS-I, Hessian will be transformed to curvilinear coordinates.
    -------------------------------------------------------------------
                    CFOUR Control Parameters 
    -------------------------------------------------------------------
        External           Internal           Value            Units
          Name               Name
    -------------------------------------------------------------------
       ABCDTYPE             IABCDT         STANDARD    [  0]    ***   
       ANHARMONIC           IANHAR         OFF         [  0]    ***   
       ANH_ALGORIT          IANALG         STANDARD    [  0]    ***   
       ANH_DERIVAT          IANDER         SECOND      [  1]    ***   
       ANH_MODE             ANHMOD         VIBRATION   [  0]    ***   
       ANH_STEPSIZ          ICUBST             50000          x 10-6  
       ANH_SYMMETR          IANHSM         ABELIAN     [  0]    ***   
       AO_LADDERS           IAOLAD         SINGLEPASS  [  1]    ***   
       AV_SCF               IAVSCF         OFF         [  0]    ***   
       BASIS                IBASIS         AUG-PCVTZ   [ 51]    ***   
       BOTHVECTORS          BOTHVC         OFF         [  0]    ***   
       BOX_POTENT           IPIAB          OFF         [  0]    ***   
       BREIT                IBREIT         OFF         [  0]    ***   
       BRUCK_CONV           IBRTOL          10D-  4             ***   
       BRUECKNER            IBRKNR         OFF         [  0]    ***   
       BUFFERSIZE           IBUFFS              4096            ***   
       CACHE_RECS           ICHREC             10               ***   
       CALCLEVEL            ICLLVL         CCSD        [ 10]    ***   
       CCORBOPT             ICCORB         OFF         [  0]  x 0.01  
       CC_CONV              ICCCNV          10D- 10             ***   
       CC_EXPORDER          ICCEOR              5               ***   
       CC_EXTRAPOL          ICCEXT         DIIS        [  1]    ***   
       CC_GUESS             ICCGES         MP2         [  0]    ***   
       CC_MAXCYC            ICCCYC            100              cycles 
       CC_PROGRAM           ICCPRO         VCC         [  0]    ***   
       CHARGE               ICHRGE              0               ***   
       CHOLESKY             ICHOLE         OFF         [  0]    ***   
       CIS_CONV             ICISTL              5               ***   
       COMM_SIZE            IPSIZE            ***               ***   
       CONSTANT             ICONST         OLD         [  1]    ***   
       CONTINUUM            ICONTU         NONE        [  0]    ***   
       CONTRACTION          ICNTYP         GENERAL     [  1]    ***   
       COORDINATES          ICOORD         INTERNAL    [  0]    ***   
       CPHF_CONVER          ICPHFT          10D- 16             ***   
       CPHF_MAXCYC          ICPHFC             64              cycles 
       CUBIC                ICUBIC         OFF         [  0]    ***   
       CURVILINEAR          ICURVY         ON          [  1]    ***   
       DBOC                 IDBOC          ON          [  1]    ***   
       DCT                  IDCT           OFF         [  0]    ***   
       DERIV_LEV            IDRLVL         SECOND      [  2]    ***   
       DEVMEM_SIZE          IDVMEM          50000000           MByte  
       DIAG_MRCC            IEOMST          10D-  0             ***   
       DIFF_TYPE            IDIFTY         RELAXED     [  0]    ***   
       DIRECT               IDIRCT         OFF         [  0]    ***   
       DROPMO               IDRPMO      NONE         
       ECP                  IECP           OFF         [  0]    ***   
       EIGENVECTOR          IVEC                1               ***   
       EL_ANHARM            IELANH         OFF         [  0]    ***   
       EOMFOLLOW            IEOMSR         ENERGY      [  0]    ***   
       EOMIP                IEOMIP         OFF         [  0]    ***   
       EOMLEVEL             HBARFM         SAME        [  0]    ***   
       EOM_MRCC             IMRCCE         NEW         [  1]    ***   
       EOM_NONIT            EOMNON         OFF         [  0]    ***   
       EOM_NSING            IEOMSI          10D-  0             ***   
       EOM_NSTATES          IMRCCD         DAVIDSON    [  0]    ***   
       EOM_NTRIP            IEOMTR          10D-  0             ***   
       EOM_ORDER            IEXORD         ENERGY      [  0]    ***   
       EOM_PROPSTA          IEOMST              0               ***   
       ESTATE_CONV          IEXTOL          10D-  5             ***   
       ESTATE_DIAG          IEXDIG         ITERATIVE   [  0]    ***   
       ESTATE_LOCK          IESLOC         ON          [  1]    ***   
       ESTATE_MAXC          IEXMXC             40               ***   
       ESTATE_PROP          IEXPRP         OFF         [  0]    ***   
       EVAL_HESS            IRECAL              0            # of cyc.
       EXCITATION           IEXCIT              0               ***   
       EXCITE               IEXCIT         NONE        [  0]    ***   
       EXTERN_POT           IEXPOT         OFF         [  0]    ***   
       FCGRADNEW            IFCGNW         OFF         [  0]    ***   
       FC_FIELD             IFINFC              0             x 10-6  
       FD_CALTYPE           IFDCAL         GRADONLY    [  0]    ***   
       FD_PROJECT           IFDPRJ         OFF         [  1]    ***   
       FD_STEPSIZE          IDISFD              0            10-4 bohr
       FD_USEGROUP          IFDGRP         FULL        [  0]    ***   
       FILE_RECSIZ          IFLREC              4096           words  
       FINITE_PERT          IFIPER              0             x 10-6  
       FIXGEOM              IFIXGM         OFF         [  0]    ***   
       FOCK                 IFOCK          AO          [  1]    ***   
       FREQ_ALGORI          IVIALG         STANDARD    [  0]    ***   
       FROZEN_CORE          IFROCO         OFF         [  0]    ***   
       GAMMA_ABCD           IGABCD         STORE       [  0]    ***   
       GAMMA_ABCI           IGABCI         STORE       [  0]    ***   
       GENBAS_1             IGNBS1              0               ***   
       GENBAS_2             IGNBS2              0               ***   
       GENBAS_3             IGNBS3              0               ***   
       GENBAS_4             IGNBS4              0               ***   
       GEO_CONV             ICONTL              5              H/bohr 
       GEO_MAXCYC           IOPTCY             50               ***   
       GEO_MAXSTEP          IMXSTP            300            millibohr
       GEO_METHOD           INR            SINGLE_POINT[  5]    ***   
       GIAO                 IGIAO          OFF         [  1]    ***   
       GIMIC                IGIMIC         OFF         [  0]    ***   
       GRID                 IGRID          OFF         [  0]    ***   
       GRID_ALGO            IGALGO         SERIAL      [  0]    ***   
       GUESS                IGUESS         MOREAD      [  0]    ***   
       HBAR                 IHBAR          OFF         [  0]    ***   
       HESS_TYPE            IHESTP         SCF         [  0]    ***   
       HF2_FILE             IHF2Fl         USE         [  1]    ***   
       HFSTABILITY          ISTABL         OFF         [  0]    ***   
       INCORE               INCORE         OFF         [  0]    ***   
       INPUT_MRCC           IMRCC          ON          [  1]    ***   
       INTEGRALS            INTTYP         VMOL        [  1]    ***   
       JODA_PRINT           IJPRNT              0               ***   
       KEYWORD_OUT          IDMPKW         NO          [  0]    ***   
       LINDEP_TOL           ILINDP              8               ***   
       LINEQ_CONV           IZTACN          10D-  7           cycles  
       LINEQ_EXPOR          ILMAXD              5               ***   
       LINEQ_MAXCY          ILMAXC            100               ***   
       LINEQ_TYPE           ILTYPE         DIIS        [  1]    ***   
       LOCK_ORBOCC          ILOCOC         OFF         [  0]    ***   
       MEMORY_SIZE          IMEMSZ         500000000           words  
       MEM_UNIT             IMEMU          INTEGERWORDS[  0]    ***   
       MRCC                 IMRCCC         OFF         [  0]    ***   
       MULTIPLICTY          IMULTP              1               ***   
       NACOUPLING           IVCOUP         OFF         [  0]    ***   
       NEGEVAL              IDIE           ABORT       [  0]    ***   
       NEWNORM              INEWNO         OFF         [  0]    ***   
       NON-HF               INONHF         OFF         [  0]    ***   
       NTOP_TAMP            ITOPT2             15               ***   
       NUC_MODEL            INUCMO         POINT       [  0]    ***   
       OCCUPATION           IOCCU   ESTIMATED BY SCF 
       OPEN-SHELL           IOPEN          SPIN-ORBITAL[  0]    ***   
       OPTVIB               IOPTVB         OFF         [  0]    ***   
       ORBITALS             IORBTP         STANDARD    [  0]    ***   
       PARALLEL             IPARAL         ON          [  1]    ***   
       PARA_INT             IPINTS         ON          [  1]    ***   
       PARA_PRINT           IPPRIN              0               ***   
       PERT_ORB             IPTORB         STANDARD    [  0]    ***   
       POINTS               IGRDFD              0               ***   
       PRINT                IPRNT               0               ***   
       PROPS                IPROPS         OFF         [  0]    ***   
       PROP_INTEGR          IINTYP         INTERNAL    [  0]    ***   
       PSI                  IPSI           OFF         [  0]    ***   
       QC_ALG               IQCALG         FLM         [  0]    ***   
       QC_LINALG            IQCLIN         TRIDIAG     [  2]    ***   
       QC_MAXCYC            IQCMAX          10D-100           cycles  
       QC_MAXSCFCY          IQCMSC          10D- 15           cycles  
       QC_RTRUST            IQCRTR          10D-  0           x 10-3  
       QC_SKIPSCF           IQCSKI         OFF         [  0]    ***   
       QC_START             IQCSTA          10D-  1             ***   
       QRHFGUESS            IQGUES         OFF         [  0]    ***   
       QUARTIC              IQUART         OFF         [  0]    ***   
       RAMAN_INT            IRAMIN         OFF         [  0]    ***   
       RAMAN_ORB            IRAMRE         UNRELAXED   [  0]    ***   
       RDO                  IRDOFM         ON          [  1]    ***   
       REDUCE_REPR          REDREP         Ir          [  0]    ***   
       REFERENCE            IREFNC         RHF         [  0]    ***   
       RELATIVIST           IRELAT         OFF         [  0]    ***   
       RELAX_DENS           IRDENS         ON          [  1]    ***   
       RESET_FLAGS          IRESET         OFF         [  0]    ***   
       RESTART_CC           ICCRES         OFF         [  0]    ***   
       ROT_EVEC             ROTVEC              0               ***   
       SAVE_INTS            ISVINT         OFF         [  0]    ***   
       SCALE_ON             ISTCRT              0               ***   
       SCF_CONV             ISCFCV          10D- 10             ***   
       SCF_DAMPING          IDAMP               0             x 10-3  
       SCF_EXPORDE          IRPPOR              6               ***   
       SCF_EXPSTAR          IRPPLS              8               ***   
       SCF_EXTRAPO          IRPP           ON          [  1]    ***   
       SCF_MAXCYC           ISCFCY            150              cycles 
       SCF_NOSTOP           ISCFST         OFF         [  0]    ***   
       SCF_PRINT            ISCFPR              0               ***   
       SCF_PROG             ISCFPR         SCF         [  0]    ***   
       SD_FIELD             IFINSD              0             x 10-6  
       SOPERT               IPERSO         OFF         [  0]    ***   
       SPHERICAL            IDFGHI         ON          [  1]    ***   
       SPINORBIT            ISOCAL         OFF         [  0]    ***   
       SPINROTATIO          ISRCON         OFF         [  0]    ***   
       SPIN_FLIP            ISPFLP         OFF         [  0]    ***   
       SPIN_ORBIT           ISPORB         OFF         [  0]    ***   
       SPIN_SCAL            ISCSMP         OFF         [  0]    ***   
       STEEPSCALE           ISTPSC              1000          x 10-3  
       SUBGROUP             ISUBGP         DEFAULT     [  0]    ***   
       SUBGRPAXIS           ISBXYZ         X           [  0]    ***   
       SYMMETRY             ISYM           ON          [  0]    ***   
       SYM_CHECK            ISYMCK         OVERRIDE    [  1]    ***   
       T3_EXTRAPOL          IT3EXT         OFF         [  0]    ***   
       T4_EXTRAPOL          IT4EXP         OFF         [  0]    ***   
       TAMP_SUM             IEVERY              5               ***   
       TESTSUITE            ITESTS         OFF         [  0]    ***   
       THERMOCH             ITHERM         OFF         [  0]    ***   
       TOL_CHOLESK          ITOLCH          10D-  4             ***   
       TRANGRAD             IRESRM         OFF         [  0]    ***   
       TRANS_INV            ITRAIN         IGNORE      [  1]    ***   
       TREAT_PERT           ITREAT         SIMULTANEOUS[  0]    ***   
       TRIP_ALGORI          ITRALG         NORMAL      [  0]    ***   
       UIJ_THRESHO          IUIJTH              1               ***   
       UNITS                IUNITS         ANGSTROM    [  0]    ***   
       UNOS                 IUNOS          OFF         [  0]    ***   
       UPDATE_HESS          IHUPDT         ON          [  1]    ***   
       VIBPHASE             ISETPH         STANDARD    [  0]    ***   
       VIBRATION            IVIB           ANALYTIC    [  1]    ***   
       VIB_ALGORIT          IGEALG         STANDARD    [  0]    ***   
       VNATORB              IVNORB         OFF         [  0]    ***   
       VTRAN                IVTRAN         FULL/PARTIAL[  0]    ***   
       XFIELD               IXEFLD              0             x 10-6  
       XFORM_TOL            IXFTOL          10D- 11             ***   
       YFIELD               IYEFLD              0             x 10-6  
       ZFIELD               IZEFLD              0             x 10-6  
       ZSCALE_EXP           IZEXPS         OFF         [  0]    ***   
    -------------------------------------------------------------------
   3 entries found in Z-matrix 
   Job Title : Hypochlorous acid DBOC calculation                                              
   There are  3 unique internal coordinates.
   Of these,  0 will be optimized.
   User supplied Z-matrix: 
--------------------------------------------------------------------------------
       SYMBOL    BOND      LENGTH    ANGLE     ANGLE     DIHED     ANGLE
                  TO      (ANGST)    WRT      (DEG)      WRT      (DEG)
--------------------------------------------------------------------------------
        O    
        H          1         ROH  
        CL         1         ROCL       2        A    
                  *Initial values for internal coordinates* 
                      Name             Value
                        ROH             1.6000000000
                        ROCL            1.6830000000
                        A             107.0000000000
--------------------------------------------------------------------------------
   Rotational constants (in cm-1): 
          0.4682410013             0.4975830736             7.9404342546
   Rotational constants (in MHz): 
      14037.5140368137         14917.1673601258        238048.2636259711
********************************************************************************
   The full molecular point group is C s .
   The largest Abelian subgroup of the full molecular point group is C s .
   The computational point group is C s .
********************************************************************************
--------------------------------------------------------------------------------
   Analysis of internal coordinates specified by Z-matrix 
--------------------------------------------------------------------------------
   *The nuclear repulsion energy is   48.815865895528432 a.u.
   *There are   3 degrees of freedom within the tot. symm. molecular subspace.
   *Z-matrix requests optimization of   0 coordinates.
   *The optimization is constrained.
   *The following   3 parameters can have non-zero 
    derivatives within the totally symmetric subspace:
             A    [ 3]  ROH  [ 1]  ROCL [ 2]
   *The following   0 parameters are to be optimized:

   *The following coordinates must be varied in an  unconstrained optimization.
             A    [ 3]  ROH  [ 1]  ROCL [ 2]
--------------------------------------------------------------------------------


 ----------------------------------------------------------------
         Coordinates used in calculation (QCOMP) 
 ----------------------------------------------------------------
 Z-matrix   Atomic            Coordinates (in bohr)
  Symbol    Number           X              Y              Z
 ----------------------------------------------------------------
     O         8        -2.11205248     0.22041192     0.00000000
     H         1        -3.21747759    -2.59383134     0.00000000
     CL       17         1.05879235    -0.02606153     0.00000000
 ----------------------------------------------------------------
 
   Interatomic distance matrix (Angstroms) 
 
                 O             H             CL   
                [ 1]        [ 2]        [ 3]
  O    [ 1]     0.00000
  H    [ 2]     1.60000     0.00000
  CL   [ 3]     1.68300     2.63952     0.00000
 rotcon2
   Rotational constants (in cm-1): 
          7.9404342546             0.4975830736             0.4682410013
   Rotational constants (in MHz): 
     238048.2636259719         14917.1673601258         14037.5140368137
  ECPDATA file not present.   Using default ECPDATA. 
  @GTFLGS-I, Hessian will be transformed to curvilinear coordinates.
  There are  157 basis functions.
 @CHECKOUT-I, Total execution time (CPU/WALL):        0.19/       0.31 seconds.
--executable xjoda finished with status     0 in        0.36 seconds (walltime).
 --invoking executable--
/home/asmola/.local/bin/xvmol
 SERIAL VERSION OF MOLECULE STARTED
********************************************************************************
                    INPUT FROM MOL FILE
********************************************************************************
INTGRL        1    0    1    0    0    0    0    0    0                         
         *** CFOUR Program System (Release V0.1) ***                            
Hypochlorous acid DBOC calculation                                              
    3    1 Z          0.10E-08              0    0                              
   9999.00      3.00                                                            
          8.00000000    1    4    1    1    1    1                              
O #1  -2.112052481758740   0.220411916983397   0.000000000000000                
   13    7                                                                      
   15330.0000000000       5.080000000000000E-004 -1.150000000000000E-004        
  0.000000000000000E+000  0.000000000000000E+000  0.000000000000000E+000        
  0.000000000000000E+000  0.000000000000000E+000                                
   2299.00000000000       3.929000000000000E-003 -8.950000000000000E-004        
  0.000000000000000E+000  0.000000000000000E+000  0.000000000000000E+000        
  0.000000000000000E+000  0.000000000000000E+000                                
   522.400000000000       2.024300000000000E-002 -4.636000000000000E-003        
  0.000000000000000E+000  0.000000000000000E+000  0.000000000000000E+000        
  0.000000000000000E+000  0.000000000000000E+000                                
   147.300000000000       7.918100000000000E-002 -1.872400000000000E-002        
  0.000000000000000E+000  0.000000000000000E+000  0.000000000000000E+000        
  0.000000000000000E+000  0.000000000000000E+000                                
   47.5500000000000       0.230687000000000      -5.846300000000000E-002        
  0.000000000000000E+000  0.000000000000000E+000  0.000000000000000E+000        
  0.000000000000000E+000  0.000000000000000E+000                                
   16.7600000000000       0.433118000000000      -0.136463000000000             
  0.000000000000000E+000  0.000000000000000E+000  0.000000000000000E+000        
  0.000000000000000E+000  0.000000000000000E+000                                
   6.20700000000000       0.350260000000000      -0.175740000000000             
  0.000000000000000E+000  0.000000000000000E+000  0.000000000000000E+000        
  0.000000000000000E+000  0.000000000000000E+000                                
   1.75200000000000       4.272800000000000E-002  0.160934000000000             
   1.00000000000000       0.000000000000000E+000  0.000000000000000E+000        
  0.000000000000000E+000  0.000000000000000E+000                                
  0.688200000000000      -8.154000000000000E-003  0.603418000000000             
  0.000000000000000E+000  0.000000000000000E+000  0.000000000000000E+000        
  0.000000000000000E+000  0.000000000000000E+000                                
  0.238400000000000       2.381000000000000E-003  0.378765000000000             
  0.000000000000000E+000   1.00000000000000       0.000000000000000E+000        
  0.000000000000000E+000  0.000000000000000E+000                                
   7.84500000000000       0.000000000000000E+000  0.000000000000000E+000        
  0.000000000000000E+000  0.000000000000000E+000   1.00000000000000             
  0.000000000000000E+000  0.000000000000000E+000                                
   21.0320000000000       0.000000000000000E+000  0.000000000000000E+000        
  0.000000000000000E+000  0.000000000000000E+000  0.000000000000000E+000        
   1.00000000000000       0.000000000000000E+000                                
  7.376000000000001E-002  0.000000000000000E+000  0.000000000000000E+000        
  0.000000000000000E+000  0.000000000000000E+000  0.000000000000000E+000        
  0.000000000000000E+000   1.00000000000000                                     
    8    6                                                                      
   34.4600000000000       1.592800000000000E-002  0.000000000000000E+000        
  0.000000000000000E+000  0.000000000000000E+000  0.000000000000000E+000        
  0.000000000000000E+000                                                        
   7.74900000000000       9.974000000000000E-002  0.000000000000000E+000        
  0.000000000000000E+000  0.000000000000000E+000  0.000000000000000E+000        
  0.000000000000000E+000                                                        
   2.28000000000000       0.310492000000000       0.000000000000000E+000        
  0.000000000000000E+000  0.000000000000000E+000  0.000000000000000E+000        
  0.000000000000000E+000                                                        
  0.715600000000000       0.491026000000000        1.00000000000000             
  0.000000000000000E+000  0.000000000000000E+000  0.000000000000000E+000        
  0.000000000000000E+000                                                        
  0.214000000000000       0.336337000000000       0.000000000000000E+000        
   1.00000000000000       0.000000000000000E+000  0.000000000000000E+000        
  0.000000000000000E+000                                                        
   15.1590000000000       0.000000000000000E+000  0.000000000000000E+000        
  0.000000000000000E+000   1.00000000000000       0.000000000000000E+000        
  0.000000000000000E+000                                                        
   57.4370000000000       0.000000000000000E+000  0.000000000000000E+000        
  0.000000000000000E+000  0.000000000000000E+000   1.00000000000000             
  0.000000000000000E+000                                                        
  5.974000000000000E-002  0.000000000000000E+000  0.000000000000000E+000        
  0.000000000000000E+000  0.000000000000000E+000  0.000000000000000E+000        
   1.00000000000000                                                             
    4    4                                                                      
   2.31400000000000        1.00000000000000       0.000000000000000E+000        
  0.000000000000000E+000  0.000000000000000E+000                                
  0.645000000000000       0.000000000000000E+000   1.00000000000000             
  0.000000000000000E+000  0.000000000000000E+000                                
   15.8580000000000       0.000000000000000E+000  0.000000000000000E+000        
   1.00000000000000       0.000000000000000E+000                                
  0.214000000000000       0.000000000000000E+000  0.000000000000000E+000        
  0.000000000000000E+000   1.00000000000000                                     
    2    2                                                                      
   1.42800000000000        1.00000000000000       0.000000000000000E+000        
  0.500000000000000       0.000000000000000E+000   1.00000000000000             
          1.00000000    1    3    1    1    1                                   
H #2  -3.217477586924499  -2.593831342497004   0.000000000000000                
    6    4                                                                      
   33.8700000000000       6.068000000000000E-003  0.000000000000000E+000        
  0.000000000000000E+000  0.000000000000000E+000                                
   5.09500000000000       4.530800000000000E-002  0.000000000000000E+000        
  0.000000000000000E+000  0.000000000000000E+000                                
   1.15900000000000       0.202822000000000       0.000000000000000E+000        
  0.000000000000000E+000  0.000000000000000E+000                                
  0.325800000000000       0.503903000000000        1.00000000000000             
  0.000000000000000E+000  0.000000000000000E+000                                
  0.102700000000000       0.383421000000000       0.000000000000000E+000        
   1.00000000000000       0.000000000000000E+000                                
  2.526000000000000E-002  0.000000000000000E+000  0.000000000000000E+000        
  0.000000000000000E+000   1.00000000000000                                     
    3    3                                                                      
   1.40700000000000        1.00000000000000       0.000000000000000E+000        
  0.000000000000000E+000                                                        
  0.388000000000000       0.000000000000000E+000   1.00000000000000             
  0.000000000000000E+000                                                        
  0.102000000000000       0.000000000000000E+000  0.000000000000000E+000        
   1.00000000000000                                                             
    2    2                                                                      
   1.05700000000000        1.00000000000000       0.000000000000000E+000        
  0.247000000000000       0.000000000000000E+000   1.00000000000000             
         17.00000000    1    4    1    1    1    1                              
CL#3   1.058792345773184  -0.026061525075447   0.000000000000000                
   18    8                                                                      
   456100.000000000       4.930000000000000E-005 -1.380000000000000E-005        
  4.200000000000000E-006  0.000000000000000E+000  0.000000000000000E+000        
  0.000000000000000E+000  0.000000000000000E+000  0.000000000000000E+000        
   68330.0000000000       3.830000000000000E-004 -1.073000000000000E-004        
  3.240000000000000E-005  0.000000000000000E+000  0.000000000000000E+000        
  0.000000000000000E+000  0.000000000000000E+000  0.000000000000000E+000        
   15550.0000000000       2.008500000000000E-003 -5.651000000000000E-004        
  1.711000000000000E-004  0.000000000000000E+000  0.000000000000000E+000        
  0.000000000000000E+000  0.000000000000000E+000  0.000000000000000E+000        
   4405.00000000000       8.385600000000000E-003 -2.361400000000000E-003        
  7.142000000000000E-004  0.000000000000000E+000  0.000000000000000E+000        
  0.000000000000000E+000  0.000000000000000E+000  0.000000000000000E+000        
   1439.00000000000       2.947030000000000E-002 -8.458900000000000E-003        
  2.567000000000000E-003  0.000000000000000E+000  0.000000000000000E+000        
  0.000000000000000E+000  0.000000000000000E+000  0.000000000000000E+000        
   520.400000000000       8.783249999999999E-002 -2.596380000000000E-002        
  7.885500000000000E-003  0.000000000000000E+000  0.000000000000000E+000        
  0.000000000000000E+000  0.000000000000000E+000  0.000000000000000E+000        
   203.100000000000       0.211473000000000      -6.863619999999999E-002        
  2.108670000000000E-002  0.000000000000000E+000  0.000000000000000E+000        
  0.000000000000000E+000  0.000000000000000E+000  0.000000000000000E+000        
   83.9600000000000       0.365364000000000      -0.141874000000000             
  4.422640000000000E-002  0.000000000000000E+000  0.000000000000000E+000        
  0.000000000000000E+000  0.000000000000000E+000  0.000000000000000E+000        
   36.2000000000000       0.340884000000000      -0.199319000000000             
  6.516700000000000E-002  0.000000000000000E+000  0.000000000000000E+000        
  0.000000000000000E+000  0.000000000000000E+000  0.000000000000000E+000        
   15.8300000000000       0.102133000000000      -1.956620000000000E-002        
  6.030100000000000E-003  0.000000000000000E+000  0.000000000000000E+000        
  0.000000000000000E+000  0.000000000000000E+000  0.000000000000000E+000        
   6.33400000000000       3.116800000000000E-003  0.499741000000000             
 -0.206495000000000       0.000000000000000E+000  0.000000000000000E+000        
  0.000000000000000E+000  0.000000000000000E+000  0.000000000000000E+000        
   2.69400000000000       1.057500000000000E-003  0.563736000000000             
 -0.405871000000000       0.000000000000000E+000  0.000000000000000E+000        
  0.000000000000000E+000  0.000000000000000E+000  0.000000000000000E+000        
  0.976800000000000      -3.780000000000000E-004  7.903250000000001E-002        
  7.595580000000000E-002   1.00000000000000       0.000000000000000E+000        
  0.000000000000000E+000  0.000000000000000E+000  0.000000000000000E+000        
  0.431300000000000       1.561000000000000E-004 -8.350900000000000E-003        
  0.725661000000000       0.000000000000000E+000  0.000000000000000E+000        
  0.000000000000000E+000  0.000000000000000E+000  0.000000000000000E+000        
  0.162500000000000      -5.140000000000000E-005  2.324600000000000E-003        
  0.394423000000000       0.000000000000000E+000   1.00000000000000             
  0.000000000000000E+000  0.000000000000000E+000  0.000000000000000E+000        
   15.0640000000000       0.000000000000000E+000  0.000000000000000E+000        
  0.000000000000000E+000  0.000000000000000E+000  0.000000000000000E+000        
   1.00000000000000       0.000000000000000E+000  0.000000000000000E+000        
   2.87400000000000       0.000000000000000E+000  0.000000000000000E+000        
  0.000000000000000E+000  0.000000000000000E+000  0.000000000000000E+000        
  0.000000000000000E+000   1.00000000000000       0.000000000000000E+000        
  5.910000000000000E-002  0.000000000000000E+000  0.000000000000000E+000        
  0.000000000000000E+000  0.000000000000000E+000  0.000000000000000E+000        
  0.000000000000000E+000  0.000000000000000E+000   1.00000000000000             
   12    7                                                                      
   663.300000000000       2.404500000000000E-003 -6.521000000000000E-004        
  0.000000000000000E+000  0.000000000000000E+000  0.000000000000000E+000        
  0.000000000000000E+000  0.000000000000000E+000                                
   156.800000000000       1.921480000000000E-002 -5.194500000000000E-003        
  0.000000000000000E+000  0.000000000000000E+000  0.000000000000000E+000        
  0.000000000000000E+000  0.000000000000000E+000                                
   49.9800000000000       8.850970000000000E-002 -2.469380000000000E-002        
  0.000000000000000E+000  0.000000000000000E+000  0.000000000000000E+000        
  0.000000000000000E+000  0.000000000000000E+000                                
   18.4200000000000       0.256020000000000      -7.281670000000000E-002        
  0.000000000000000E+000  0.000000000000000E+000  0.000000000000000E+000        
  0.000000000000000E+000  0.000000000000000E+000                                
   7.24000000000000       0.436927000000000      -0.134030000000000             
  0.000000000000000E+000  0.000000000000000E+000  0.000000000000000E+000        
  0.000000000000000E+000  0.000000000000000E+000                                
   2.92200000000000       0.350334000000000      -9.477420000000000E-002        
  0.000000000000000E+000  0.000000000000000E+000  0.000000000000000E+000        
  0.000000000000000E+000  0.000000000000000E+000                                
   1.02200000000000       5.854950000000000E-002  0.262289000000000             
   1.00000000000000       0.000000000000000E+000  0.000000000000000E+000        
  0.000000000000000E+000  0.000000000000000E+000                                
  0.381800000000000      -4.584200000000000E-003  0.564667000000000             
  0.000000000000000E+000  0.000000000000000E+000  0.000000000000000E+000        
  0.000000000000000E+000  0.000000000000000E+000                                
  0.130100000000000       2.269700000000000E-003  0.341250000000000             
  0.000000000000000E+000   1.00000000000000       0.000000000000000E+000        
  0.000000000000000E+000  0.000000000000000E+000                                
   9.48000000000000       0.000000000000000E+000  0.000000000000000E+000        
  0.000000000000000E+000  0.000000000000000E+000   1.00000000000000             
  0.000000000000000E+000  0.000000000000000E+000                                
   3.66800000000000       0.000000000000000E+000  0.000000000000000E+000        
  0.000000000000000E+000  0.000000000000000E+000  0.000000000000000E+000        
   1.00000000000000       0.000000000000000E+000                                
  4.190000000000000E-002  0.000000000000000E+000  0.000000000000000E+000        
  0.000000000000000E+000  0.000000000000000E+000  0.000000000000000E+000        
  0.000000000000000E+000   1.00000000000000                                     
    5    5                                                                      
   1.04600000000000        1.00000000000000       0.000000000000000E+000        
  0.000000000000000E+000  0.000000000000000E+000  0.000000000000000E+000        
  0.344000000000000       0.000000000000000E+000   1.00000000000000             
  0.000000000000000E+000  0.000000000000000E+000  0.000000000000000E+000        
   17.9570000000000       0.000000000000000E+000  0.000000000000000E+000        
   1.00000000000000       0.000000000000000E+000  0.000000000000000E+000        
   5.76000000000000       0.000000000000000E+000  0.000000000000000E+000        
  0.000000000000000E+000   1.00000000000000       0.000000000000000E+000        
  0.135000000000000       0.000000000000000E+000  0.000000000000000E+000        
  0.000000000000000E+000  0.000000000000000E+000   1.00000000000000             
    3    3                                                                      
  0.706000000000000        1.00000000000000       0.000000000000000E+000        
  0.000000000000000E+000                                                        
   11.7790000000000       0.000000000000000E+000   1.00000000000000             
  0.000000000000000E+000                                                        
  0.312000000000000       0.000000000000000E+000  0.000000000000000E+000        
   1.00000000000000                                                             
FINISH                                                                          
 
********************************************************************************
 ONE- AND TWO-ELECTRON INTEGRALS OVER SYMMETRY-ADAPTED AOS ARE CALCULATED.

  SPHERICAL HARMONICS ARE USED.
  
  INTEGRALS LESS THAN  0.10E-13 ARE NEGLECTED.

  NUCLEAR REPULSION ENERGY :   48.8158658955 A.U.
  @MOLECU-I, ONE ELECTRON INTEGRALS (CPU/WALL):        0.04/       0.06 SECONDS.
  @TWOEL-I,   14142293 INTEGRALS OF SYMMETRY TYPE  I I I I
  @TWOEL-I,   13312425 INTEGRALS OF SYMMETRY TYPE  I J I J
  @TWOEL-I,    6887905 INTEGRALS OF SYMMETRY TYPE  I I J J
  @TWOEL-I, TOTAL NUMBER OF 2-E INTEGRALS   34342623.
  @MOLECU-I, TWO ELECTRON INTEGRALS (CPU/WALL):       55.73/       9.46 SECONDS.
 @CHECKOUT-I, Total execution time (CPU/WALL):       55.78/       9.53 seconds.

Running with 14 threads/proc

--executable xvmol finished with status     0 in        9.57 seconds (walltime).
 --invoking executable--
/home/asmola/.local/bin/xvmol2ja
 @GETMEM-I,  Allocated    3814 MB of main memory.
 @CHECKOUT-I, Total execution time (CPU/WALL):        0.11/       0.03 seconds.
--executable xvmol2ja finished with status     0 in        0.06 seconds (walltime).
 --invoking executable--
/home/asmola/.local/bin/xvscf
  There are  157 functions in the AO basis.

  There are 2 irreducible representations.

       Irrep        # of functions
         1                104
         2                 53


  Parameters for SCF calculation: 
        SCF reference function:  RHF  
  Maximum number of iterations:  150
     Full symmetry point group: C s 
     Computational point group: C s 
        Initial density matrix: MOREAD                 
     SCF convergence tolerance: 10**(-10)
  DIIS convergence acceleration:  ON
          Latest start for DIIS:   8
                     DIIS order:   6

  Memory information:    1209746 words required.
  Fock matrices are constructed from AO integral file.
 @GETMEM-I,  Allocated       9 MB of main memory.
  Initialization and symmetry analysis required      0.001 seconds.

  @INITGES-I, Occupancies from core Hamiltonian:

          Alpha population by irrep:  10    3
           Beta population by irrep:  10    3


 total no. of electrons in initial guess :  0.000000000000000E+000
  --------------------------------------------------------------------
  Iteration         Total Energy            Largest Density Difference
  --------------------------------------------------------------------
       0            48.815865895528439              0.0000000000D+00
   current occupation vector 
    10  3
    10  3
       1          -366.326830435209786              0.1325640714D+02
   current occupation vector 
    10  3
    10  3
       2          -343.014811144785199              0.1322378338D+02
   current occupation vector 
    10  3
    10  3
       3          -422.292008876329817              0.1068817432D+02
   current occupation vector 
    10  3
    10  3
       4          -340.324364173567290              0.1069671125D+02
   current occupation vector 
    10  3
    10  3
       5          -422.066337160520618              0.1064276570D+02
   current occupation vector 
    10  3
    10  3
       6          -340.238848403378427              0.1064298778D+02
   current occupation vector 
    10  3
    10  3
       7          -422.058651506899480              0.1064111358D+02
   current occupation vector 
    10  3
    10  3
       8          -340.236226420840296              0.1064112018D+02
   current occupation vector 
    10  3
    10  3
       9          -445.083432916513175              0.8446503026D+01
   current occupation vector 
    10  3
    10  3
      10          -463.899712741392705              0.2067020515D+01
   current occupation vector 
    10  3
    10  3
      11          -468.064553530171224              0.4720882809D+00
   current occupation vector 
    10  3
    10  3
      12          -468.709622394100961              0.9663039786D-01
   current occupation vector 
    10  3
    10  3
      13          -485.031683563098341              0.2089604838D+01
   current occupation vector 
    10  3
    10  3
      14          -492.056229562164503              0.7752326136D+00
   current occupation vector 
    10  3
    10  3
      15          -509.576355394740062              0.7310345623D+01
   current occupation vector 
    10  3
    10  3
      16          -524.079745867022439              0.7309228447D+01
   current occupation vector 
    11  2
    11  2
      17          -528.760827225331241              0.3651448084D+01
   current occupation vector 
    11  2
    11  2
      18          -532.244858705753586              0.1508076696D+01
   current occupation vector 
    11  2
    11  2
      19          -534.534252724649377              0.2286024204D+01
   current occupation vector 
    10  3
    10  3
      20          -534.739540545001205              0.6878767526D+00
   current occupation vector 
    10  3
    10  3
      21          -534.774495987707496              0.2093945286D+00
   current occupation vector 
    10  3
    10  3
      22          -534.779616618347745              0.8953417960D-01
   current occupation vector 
    10  3
    10  3
      23          -534.780574039881913              0.4666851322D-01
   current occupation vector 
    10  3
    10  3
      24          -534.780693627917685              0.1789534274D-01
   current occupation vector 
    10  3
    10  3
      25          -534.780712304568624              0.6176787786D-02
   current occupation vector 
    10  3
    10  3
      26          -534.780714703604190              0.2239351472D-02
   current occupation vector 
    10  3
    10  3
      27          -534.780714916831243              0.4851090499D-03
   current occupation vector 
    10  3
    10  3
      28          -534.780714948100353              0.1957767812D-03
   current occupation vector 
    10  3
    10  3
      29          -534.780714951740492              0.6193833103D-04
   current occupation vector 
    10  3
    10  3
      30          -534.780714952401922              0.3597239500D-04
   current occupation vector 
    10  3
    10  3
      31          -534.780714952527546              0.1276092663D-04
   current occupation vector 
    10  3
    10  3
      32          -534.780714952545054              0.7944838856D-05
   current occupation vector 
    10  3
    10  3
      33          -534.780714952551648              0.7854261324D-06
   current occupation vector 
    10  3
    10  3
      34          -534.780714952552216              0.4479031066D-06
   current occupation vector 
    10  3
    10  3
      35          -534.780714952549488              0.1519116255D-06
   current occupation vector 
    10  3
    10  3
      36          -534.780714952553126              0.5895868704D-07
   current occupation vector 
    10  3
    10  3
      37          -534.780714952550738              0.1579489450D-07
   current occupation vector 
    10  3
    10  3
      38          -534.780714952553467              0.1061963451D-07
   current occupation vector 
    10  3
    10  3
      39          -534.780714952553240              0.3392256254D-08
   current occupation vector 
    10  3
    10  3
      40          -534.780714952548578              0.2484542690D-08
   current occupation vector 
    10  3
    10  3
      41          -534.780714952551989              0.5774142345D-09
   current occupation vector 
    10  3
    10  3
      42          -534.780714952550852              0.2811366348D-09
   current occupation vector 
    10  3
    10  3

  SCF has converged.

 Density matrix saved to file den.dat
 total electron number:   26.0000000000001     
     E(SCF)=      -534.780714952552785              0.9064866219D-10

  Eigenvector printing suppressed.

 @PUTMOS-I, Writing converged MOs to NEWMOS. 
 @PUTMOS-I, Symmetry   1 Full Blocks 26 Partial Blocksize   0
 @PUTMOS-I, Symmetry   2 Full Blocks 13 Partial Blocksize   1
 @PUTFOCK-I, Writing converged Fock matrix to NEWFOCK. 
 @PUTFOCK-I, Symmetry   1 Full Blocks 26 Partial Blocksize   0
 @PUTFOCK-I, Symmetry   2 Full Blocks 13 Partial Blocksize   1


 
  ORBITAL EIGENVALUES (ALPHA)  (1H = 27.2113834 eV)

       MO #        E(hartree)               E(eV)           FULLSYM    COMPSYM
       ----   --------------------   --------------------   -------   ---------
    1     1        -104.8829194343       -2854.0093328380     A'        A'  (1)
    2     2         -20.6674465792        -562.3898127663     A'        A'  (1)
    3     3         -10.6027464912        -288.5153998637     A'        A'  (1)
    4     4          -8.0694078365        -219.5797504512     A'        A'  (1)
    5     5          -8.0672435931        -219.5208583925     A'        A'  (1)
    6   105          -8.0670508654        -219.5156140057     A''       A'' (2)
    7     6          -1.3528263701         -36.8122770309     A'        A'  (1)
    8     7          -1.0277837288         -27.9674170957     A'        A'  (1)
    9   106          -0.6023174788         -16.3898918450     A''       A'' (2)
   10     8          -0.6013028606         -16.3622826795     A'        A'  (1)
   11     9          -0.5808434011         -15.8055524831     A'        A'  (1)
   12   107          -0.4336642152         -11.8006032266     A''       A'' (2)
   13    10          -0.4312855474         -11.7358763852     A'        A'  (1)
  +++++++++++++++++++++++++++++++++++++++++++++++++++++++++++++++++++++++++++++
   14    11          -0.0193107558          -0.5254723796     A'        A'  (1)
   15    12           0.0553407695           1.5058988962     A'        A'  (1)
   16    13           0.0859099095           2.3377274839     A'        A'  (1)
   17   108           0.1177882791           3.2051820232     A''       A'' (2)
   18    14           0.1184794339           3.2239893014     A'        A'  (1)
   19    15           0.1505172196           4.0957817699     A'        A'  (1)
   20    16           0.1644512733           4.4749466489     A'        A'  (1)
   21    17           0.1763053670           4.7975129366     A'        A'  (1)
   22   109           0.1921735158           5.2293072188     A''       A'' (2)
   23    18           0.2215530070           6.0287638159     A'        A'  (1)
   24   110           0.2472449155           6.7278761900     A''       A'' (2)
   25    19           0.2816773199           7.6648295477     A'        A'  (1)
   26    20           0.3152518819           8.5784398252     A'        A'  (1)
   27    21           0.3364660539           9.1557067945     A'        A'  (1)
   28   111           0.3741502854          10.1811468662     A''       A'' (2)
   29    22           0.3880388666          10.5590743739     A'        A'  (1)
   30   112           0.4255774657          11.5805515855     A''       A'' (2)
   31    23           0.4592143155          12.4958568016     A'        A'  (1)
   32    24           0.5090362987          13.8515818881     A'        A'  (1)
   33    25           0.5899840707          16.0542827475     A'        A'  (1)
   34   113           0.6181078827          16.8195705781     A''       A'' (2)
   35    26           0.6511633078          17.7190544258     A'        A'  (1)
   36    27           0.6738073714          18.3352307205     A'        A'  (1)
   37   114           0.7470690574          20.3287825467     A''       A'' (2)
   38    28           0.7542311041          20.5236717450     A'        A'  (1)
   39    29           0.7656035342          20.8331313018     A'        A'  (1)
   40   115           0.7753837714          21.0992650867     A''       A'' (2)
   41    30           0.8059840497          21.9319409897     A'        A'  (1)
   42    31           0.8321377853          22.6436203170     A'        A'  (1)
   43   116           0.8339461946          22.6928296374     A''       A'' (2)
   44   117           0.8907475982          24.2384744059     A''       A'' (2)
   45    32           0.9010908346          24.5199281775     A'        A'  (1)
   46   118           0.9433741246          25.6705149931     A''       A'' (2)
   47    33           0.9521715391          25.9099048143     A'        A'  (1)
   48   119           0.9546757715          25.9780484416     A''       A'' (2)
   49    34           0.9766591522          26.5762466410     A'        A'  (1)
   50    35           1.0137663653          27.5859852441     A'        A'  (1)
   51    36           1.0330132620          28.1097199294     A'        A'  (1)
   52    37           1.0752329856          29.2585770156     A'        A'  (1)
   53   120           1.1037605973          30.0348527941     A''       A'' (2)
   54    38           1.1134690672          30.2990336915     A'        A'  (1)
   55   121           1.1694904663          31.8234534622     A''       A'' (2)
   56    39           1.2164645651          33.1016836745     A'        A'  (1)
   57    40           1.2338511038          33.5747954447     A'        A'  (1)
   58   122           1.3098183516          35.6419693495     A''       A'' (2)
   59    41           1.3752401340          37.4221865541     A'        A'  (1)
   60   123           1.3763288657          37.4518124501     A''       A'' (2)
   61    42           1.5102072711          41.0948290676     A'        A'  (1)
   62   124           1.5242778008          41.4777076445     A''       A'' (2)
   63    43           1.5315589169          41.6758368875     A'        A'  (1)
   64    44           1.6229224583          44.1619652400     A'        A'  (1)
   65    45           1.7294992031          47.0620659053     A'        A'  (1)
   66    46           1.8297574134          49.7902305057     A'        A'  (1)
   67   125           2.1555671712          58.6559647407     A''       A'' (2)
   68    47           2.2048551228          59.9971580872     A'        A'  (1)
   69   126           2.2200840359          60.4115578816     A''       A'' (2)
   70    48           2.2683083134          61.7238071867     A'        A'  (1)
   71   127           2.3075207033          62.7908305602     A''       A'' (2)
   72    49           2.3103363003          62.8674468495     A'        A'  (1)
   73    50           2.3228852583          63.2089213584     A'        A'  (1)
   74    51           2.3685487834          64.4514890454     A'        A'  (1)
   75   128           2.4128102493          65.6559047643     A''       A'' (2)
   76    52           2.4194321137          65.8360948569     A'        A'  (1)
   77   129           2.4455062202          66.5456073656     A''       A'' (2)
   78   130           2.4801057295          67.4871078792     A''       A'' (2)
   79    53           2.5005302112          68.0428862813     A'        A'  (1)
   80   131           2.5302653669          68.8520210022     A''       A'' (2)
   81    54           2.5487558799          69.3551734397     A'        A'  (1)
   82    55           2.6528731933          72.1883495743     A'        A'  (1)
   83    56           2.8912674629          78.6753874436     A'        A'  (1)
   84   132           2.9026994815          78.9864684867     A''       A'' (2)
   85    57           2.9721992672          80.8776538001     A'        A'  (1)
   86    58           3.0562242125          83.1640888019     A'        A'  (1)
   87   133           3.0638206327          83.3707979043     A''       A'' (2)
   88   134           3.1061277470          84.5220330122     A''       A'' (2)
   89    59           3.1315425642          85.2136053483     A'        A'  (1)
   90    60           3.1723228186          86.3232924862     A'        A'  (1)
   91    61           3.2111380489          87.3795085988     A'        A'  (1)
   92   135           3.3646707011          91.5573444615     A''       A'' (2)
   93    62           3.3726086265          91.7733463940     A'        A'  (1)
   94    63           3.4079531299          92.7351192273     A'        A'  (1)
   95    64           3.8077256068         103.6134813675     A'        A'  (1)
   96   136           3.8233782595         104.0394117013     A''       A'' (2)
   97    65           3.8708514752         105.3312235773     A'        A'  (1)
   98   137           4.0025050822         108.9137003520     A''       A'' (2)
   99    66           4.0834194461         111.1154921309     A'        A'  (1)
  100   138           4.1141157426         111.9507808237     A''       A'' (2)
  101   139           4.2048110985         114.4187269259     A''       A'' (2)
  102    67           4.2084334591         114.5172963694     A'        A'  (1)
  103    68           4.2287989175         115.0714686644     A'        A'  (1)
  104    69           4.5468724483         123.7266894621     A'        A'  (1)
  105    70           5.0153900818         136.4757024160     A'        A'  (1)
  106    71           5.1141470989         139.1630174709     A'        A'  (1)
  107    72           5.8867473137         160.1865381326     A'        A'  (1)
  108   140           6.5790647220         179.0254525650     A''       A'' (2)
  109    73           6.6269695035         180.3290079402     A'        A'  (1)
  110   141           6.6779360764         181.7158788965     A''       A'' (2)
  111    74           6.6892234261         182.0230232953     A'        A'  (1)
  112   142           6.7742537747         184.3368167125     A''       A'' (2)
  113    75           6.8841528211         187.3273217997     A'        A'  (1)
  114    76           6.9439077522         188.9533361398     A'        A'  (1)
  115   143           7.0667090250         192.2949286556     A''       A'' (2)
  116    77           7.1323533538         194.0812016554     A'        A'  (1)
  117   144           7.1689991989         195.0783857949     A''       A'' (2)
  118    78           7.5426354772         205.2455458172     A'        A'  (1)
  119    79           7.6819871970         209.0374988919     A'        A'  (1)
  120   145          10.3554303462         281.7855854238     A''       A'' (2)
  121    80          10.3595963832         281.8989490519     A'        A'  (1)
  122   146          10.3938254796         282.8303701193     A''       A'' (2)
  123    81          10.4365848493         283.9939117211     A'        A'  (1)
  124    82          10.5990787545         288.4155956751     A'        A'  (1)
  125   147          12.6849085144         345.1739089791     A''       A'' (2)
  126    83          12.7290137318         346.3740729603     A'        A'  (1)
  127    84          13.1958364620         359.0769652501     A'        A'  (1)
  128    85          18.2561471240         496.7750187973     A'        A'  (1)
  129   148          26.0514663430         708.8964387917     A''       A'' (2)
  130    86          26.1945755501         712.7906382948     A'        A'  (1)
  131    87          26.5710949695         723.0362525732     A'        A'  (1)
  132    88          28.7491057662         782.3029394124     A'        A'  (1)
  133   149          36.9023887302        1004.1650481144     A''       A'' (2)
  134    89          36.9036294593        1004.1988100676     A'        A'  (1)
  135   150          36.9038405795        1004.2045549406     A''       A'' (2)
  136    90          36.9056573227        1004.2539910376     A'        A'  (1)
  137   151          36.9117092699        1004.4186728935     A''       A'' (2)
  138    91          36.9118104030        1004.4214248649     A'        A'  (1)
  139    92          36.9162863087        1004.5432204496     A'        A'  (1)
  140   152          43.8639212395        1193.5979782741     A''       A'' (2)
  141    93          43.8766053588        1193.9431307078     A'        A'  (1)
  142   153          43.8978078696        1194.5200803596     A''       A'' (2)
  143    94          43.9754013161        1196.6315053808     A'        A'  (1)
  144    95          44.0548442430        1198.7932573237     A'        A'  (1)
  145   154          46.4894841951        1265.0431785010     A''       A'' (2)
  146    96          46.4918018594        1265.1062453541     A'        A'  (1)
  147   155          46.5143139827        1265.7188313716     A''       A'' (2)
  148    97          46.5367810310        1266.3301908370     A'        A'  (1)
  149    98          46.6194432658        1268.5795446012     A'        A'  (1)
  150   156          55.0241720109        1497.2838408557     A''       A'' (2)
  151    99          55.0731382599        1498.6162802303     A'        A'  (1)
  152   100          55.6205925413        1513.5132685772     A'        A'  (1)
  153   101         103.8058942251        2824.7019869381     A'        A'  (1)
  154   157         138.2127633954        3760.9604955245     A''       A'' (2)
  155   102         138.3104749708        3763.6193626655     A'        A'  (1)
  156   103         138.5815543770        3770.9958083211     A'        A'  (1)
  157   104         149.4628681990        4067.0914106265     A'        A'  (1)


  VSCF finished.

 @CHECKOUT-I, Total execution time (CPU/WALL):       70.19/      13.41 seconds.
--executable xvscf finished with status     0 in       13.44 seconds (walltime).
 --invoking executable--
/home/asmola/.local/bin/xvtran
 @GETMEM-I,  Allocated    3814 MB of main memory.
  Full RHF integral transformation
  Transformation of IIII integrals :
  1 pass through the AO integral file was required.
    14142293 AO integrals were read.
    15933126 MO integrals were written to HF2.
  Transformation of IIJJ integrals :
  1 pass through the AO integral file was required.
     6887905 AO integrals were read.
     7813260 MO integrals were written to HF2.
  Transformation of IJIJ integrals :
  1 pass through the AO integral file was required.
    13312425 AO integrals were read.
    15193828 MO integrals were written to HF2.
  Summary of active molecular orbitals: 
------------------------------------------------------------------------
 
  Index      Eigenvalue    Symmetry    Index      Eigenvalue    Symmetry
------------------------------------------------------------------------
     1      -104.8829194        1        80         7.1323534        1
     2       -20.6674466        1        81         7.5426355        1
     3       -10.6027465        1        82         7.6819872        1
     4        -8.0694078        1        83        10.3595964        1
     5        -8.0672436        1        84        10.4365848        1
     6        -1.3528264        1        85        10.5990788        1
     7        -1.0277837        1        86        12.7290137        1
     8        -0.6013029        1        87        13.1958365        1
     9        -0.5808434        1        88        18.2561471        1
    10        -0.4312855        1        89        26.1945756        1
    11        -8.0670509        2        90        26.5710950        1
    12        -0.6023175        2        91        28.7491058        1
    13        -0.4336642        2        92        36.9036295        1
    14        -0.0193108        1        93        36.9056573        1
    15         0.0553408        1        94        36.9118104        1
    16         0.0859099        1        95        36.9162863        1
    17         0.1184794        1        96        43.8766054        1
    18         0.1505172        1        97        43.9754013        1
    19         0.1644513        1        98        44.0548442        1
    20         0.1763054        1        99        46.4918019        1
    21         0.2215530        1       100        46.5367810        1
    22         0.2816773        1       101        46.6194433        1
    23         0.3152519        1       102        55.0731383        1
    24         0.3364661        1       103        55.6205925        1
    25         0.3880389        1       104       103.8058942        1
    26         0.4592143        1       105       138.3104750        1
    27         0.5090363        1       106       138.5815544        1
    28         0.5899841        1       107       149.4628682        1
    29         0.6511633        1       108         0.1177883        2
    30         0.6738074        1       109         0.1921735        2
    31         0.7542311        1       110         0.2472449        2
    32         0.7656035        1       111         0.3741503        2
    33         0.8059840        1       112         0.4255775        2
    34         0.8321378        1       113         0.6181079        2
    35         0.9010908        1       114         0.7470691        2
    36         0.9521715        1       115         0.7753838        2
    37         0.9766592        1       116         0.8339462        2
    38         1.0137664        1       117         0.8907476        2
    39         1.0330133        1       118         0.9433741        2
    40         1.0752330        1       119         0.9546758        2
    41         1.1134691        1       120         1.1037606        2
    42         1.2164646        1       121         1.1694905        2
    43         1.2338511        1       122         1.3098184        2
    44         1.3752401        1       123         1.3763289        2
    45         1.5102073        1       124         1.5242778        2
    46         1.5315589        1       125         2.1555672        2
    47         1.6229225        1       126         2.2200840        2
    48         1.7294992        1       127         2.3075207        2
    49         1.8297574        1       128         2.4128102        2
    50         2.2048551        1       129         2.4455062        2
    51         2.2683083        1       130         2.4801057        2
    52         2.3103363        1       131         2.5302654        2
    53         2.3228853        1       132         2.9026995        2
    54         2.3685488        1       133         3.0638206        2
    55         2.4194321        1       134         3.1061277        2
    56         2.5005302        1       135         3.3646707        2
    57         2.5487559        1       136         3.8233783        2
    58         2.6528732        1       137         4.0025051        2
    59         2.8912675        1       138         4.1141157        2
    60         2.9721993        1       139         4.2048111        2
    61         3.0562242        1       140         6.5790647        2
    62         3.1315426        1       141         6.6779361        2
    63         3.1723228        1       142         6.7742538        2
    64         3.2111380        1       143         7.0667090        2
    65         3.3726086        1       144         7.1689992        2
    66         3.4079531        1       145        10.3554303        2
    67         3.8077256        1       146        10.3938255        2
    68         3.8708515        1       147        12.6849085        2
    69         4.0834194        1       148        26.0514663        2
    70         4.2084335        1       149        36.9023887        2
    71         4.2287989        1       150        36.9038406        2
    72         4.5468724        1       151        36.9117093        2
    73         5.0153901        1       152        43.8639212        2
    74         5.1141471        1       153        43.8978079        2
    75         5.8867473        1       154        46.4894842        2
    76         6.6269695        1       155        46.5143140        2
    77         6.6892234        1       156        55.0241720        2
    78         6.8841528        1       157       138.2127634        2
    79         6.9439078        1
------------------------------------------------------------------------
  -104.882919434298       -20.6674465792229       -10.6027464911503     
  -8.06940783654604       -8.06724359308169       -1.35282637011821     
  -1.02778372876341      -0.601302860608375      -0.580843401115513     
 -0.431285547400029       -8.06705086539989      -0.602317478831090     
 -0.433664215196232      -1.931075579261232E-002  5.534076948949891E-002
  8.590990945147356E-002  0.118479433918972       0.150517219565565     
  0.164451273317248       0.176305366988270       0.221553006964447     
  0.281677319928357       0.315251881873188       0.336466053927445     
  0.388038866629078       0.459214315489447       0.509036298686017     
  0.589984070692209       0.651163307844821       0.673807371385387     
  0.754231104069179       0.765603534211552       0.805984049665574     
  0.832137785283812       0.901090834561606       0.952171539146386     
  0.976659152177467        1.01376636529764        1.03301326199339     
   1.07523298560500        1.11346906719449        1.21646456513944     
   1.23385110382582        1.37524013402671        1.51020727110805     
   1.53155891690325        1.62292245825169        1.72949920309194     
   1.82975741342416        2.20485512277313        2.26830831344919     
   2.31033630026774        2.32288525832236        2.36854878335118     
   2.41943211372631        2.50053021123735        2.54875587985511     
   2.65287319329393        2.89126746285314        2.97219926716885     
   3.05622421246949        3.13154256421544        3.17232281862540     
   3.21113804889387        3.37260862650529        3.40795312991279     
   3.80772560675816        3.87085147524459        4.08341944610106     
   4.20843345911789        4.22879891745518        4.54687244831786     
   5.01539008178386        5.11414709885400        5.88674731372051     
   6.62696950351413        6.68922342608093        6.88415282112080     
   6.94390775221536        7.13235335383344        7.54263547722611     
   7.68198719701453        10.3595963831767        10.4365848493056     
   10.5990787544865        12.7290137318158        13.1958364619613     
   18.2561471239768        26.1945755501289        26.5710949695122     
   28.7491057662442        36.9036294592662        36.9056573227218     
   36.9118104030287        36.9162863086767        43.8766053587619     
   43.9754013160832        44.0548442430057        46.4918018594430     
   46.5367810310221        46.6194432658347        55.0731382598597     
   55.6205925413269        103.805894225064        138.310474970760     
   138.581554377022        149.462868198993       0.117788279121368     
  0.192173515839672       0.247244915521919       0.374150285436470     
  0.425577465696927       0.618107882675994       0.747069057383742     
  0.775383771435034       0.833946194644219       0.890747598150436     
  0.943374124563510       0.954675771522780        1.10376059726877     
   1.16949046634002        1.30981835159063        1.37632886573939     
   1.52427780075504        2.15556717122588        2.22008403591815     
   2.30752070327125        2.41281024926805        2.44550622022302     
   2.48010572954619        2.53026536688924        2.90269948152118     
   3.06382063266721        3.10612774697190        3.36467070106741     
   3.82337825945529        4.00250508219413        4.11411574259528     
   4.20481109850301        6.57906472204676        6.67793607643083     
   6.77425377470785        7.06670902500443        7.16899919887712     
   10.3554303462489        10.3938254796446        12.6849085143932     
   26.0514663430041        36.9023887302393        36.9038405794775     
   36.9117092699336        43.8639212394507        43.8978078696133     
   46.4894841950950        46.5143139827122        55.0241720108850     
   138.212763395354     
 @CHECKOUT-I, Total execution time (CPU/WALL):       34.96/      19.60 seconds.
--executable xvtran finished with status     0 in       19.65 seconds (walltime).
 --invoking executable--
/home/asmola/.local/bin/xintprc
 @GETMEM-I,  Allocated    3814 MB of main memory.
  Processing integrals for CCSD calculation.
  @GMOIAA-I, Processing MO integrals for spin case AA.
  @GMOIAA-I, Generation of integral list completed.
                      TYPE                NUMBER
                      ----               --------
                      PPPP              27524020
                      PPPH               9932000
                      PPHH                900748
                      PHPH                491140
                      PHHH                 89950
                      HHHH                  2356

                     TOTAL              38940214

  @FORMT2-I, Second-order MP correlation energies:
            ------------------------------------------------
            E(SCF)                  =   -534.780714952553 a.u.
            E2(AA)                  =     -0.110969905951 a.u.
            E2(AB)                  =     -0.656125527177 a.u.
            E2(TOT)                 =     -0.878065339078 a.u.
            Total MP2 energy        =   -535.658780291631 a.u.
            ------------------------------------------------
   Largest T2 amplitudes for spin case AB:
       _       _                 _       _                 _       _
   i   j   a   b             i   j   a   b             i   j   a   b
-----------------------------------------------------------------------------
[ 10  10  14  14]-0.04478 [  9   9  14  14]-0.03736 [ 10   9  14  14]-0.03119
[  9  10  14  14]-0.03119 [  8   8  19  19]-0.03097 [ 10   8  14  14] 0.02764
[  8  10  14  14] 0.02764 [  8   8  14  14]-0.02460 [  8   8  19  16] 0.02140
[  8   8  16  19] 0.02140 [  8   9  19  14]-0.02063 [  9   8  14  19]-0.02063
[  8   9  16  14] 0.02038 [  9   8  14  16] 0.02038 [  9   8  14  14] 0.02036
-----------------------------------------------------------------------------
   Norm of T2AB vector (  1799624 symmetry allowed elements):  0.3679353700.
-----------------------------------------------------------------------------
 @CHECKOUT-I, Total execution time (CPU/WALL):        7.26/       7.55 seconds.
--executable xintprc finished with status     0 in        7.69 seconds (walltime).
  calling xvcc 
 --invoking executable--
/home/asmola/.local/bin/xvcc
 @GETMEM-I,  Allocated    3814 MB of main memory.
   CCSD energy will be calculated.
   The total correlation energy is -0.878065339078 a.u.
   The total correlation energy is -0.865868884808 a.u.
  Convergence information after     1 iterations: 
  Largest element of residual vector :  0.18178056E-01.
  Largest element of DIIS residual   :  0.18178056E-01.
   The total correlation energy is -0.888871832530 a.u.
  Convergence information after     2 iterations: 
  Largest element of residual vector : -0.13092830E-01.
  Largest element of DIIS residual   : -0.11647876E-01.
   The total correlation energy is -0.887486589472 a.u.
  Convergence information after     3 iterations: 
  Largest element of residual vector :  0.70331858E-02.
  Largest element of DIIS residual   :  0.70785448E-02.
   The total correlation energy is -0.890640055271 a.u.
  Convergence information after     4 iterations: 
  Largest element of residual vector : -0.26520354E-02.
  Largest element of DIIS residual   : -0.15550109E-02.
   The total correlation energy is -0.891261381412 a.u.
  Convergence information after     5 iterations: 
  Largest element of residual vector :  0.23277450E-02.
  Largest element of DIIS residual   :  0.12279607E-02.
   The total correlation energy is -0.891314755313 a.u.
  Convergence information after     6 iterations: 
  Largest element of residual vector :  0.66628164E-03.
  Largest element of DIIS residual   :  0.29524838E-03.
   The total correlation energy is -0.891326178780 a.u.
  Convergence information after     7 iterations: 
  Largest element of residual vector :  0.48381000E-03.
  Largest element of DIIS residual   :  0.24204486E-03.
   The total correlation energy is -0.891335863320 a.u.
  Convergence information after     8 iterations: 
  Largest element of residual vector :  0.16347949E-03.
  Largest element of DIIS residual   :  0.58765797E-04.
   The total correlation energy is -0.891329055577 a.u.
  Convergence information after     9 iterations: 
  Largest element of residual vector :  0.72081573E-04.
  Largest element of DIIS residual   : -0.38777772E-04.
   The total correlation energy is -0.891335698649 a.u.
  Convergence information after    10 iterations: 
  Largest element of residual vector :  0.27831358E-04.
  Largest element of DIIS residual   : -0.16949605E-04.
   The total correlation energy is -0.891335993936 a.u.
  Convergence information after    11 iterations: 
  Largest element of residual vector :  0.13084569E-04.
  Largest element of DIIS residual   :  0.90765728E-05.
   The total correlation energy is -0.891337508024 a.u.
  Convergence information after    12 iterations: 
  Largest element of residual vector :  0.63706307E-05.
  Largest element of DIIS residual   :  0.38098163E-05.
   The total correlation energy is -0.891338092050 a.u.
  Convergence information after    13 iterations: 
  Largest element of residual vector :  0.33750539E-05.
  Largest element of DIIS residual   :  0.29263529E-05.
   The total correlation energy is -0.891338318091 a.u.
  Convergence information after    14 iterations: 
  Largest element of residual vector :  0.15873676E-05.
  Largest element of DIIS residual   :  0.14552679E-05.
   The total correlation energy is -0.891338392896 a.u.
  Convergence information after    15 iterations: 
  Largest element of residual vector :  0.11539998E-05.
  Largest element of DIIS residual   :  0.72860689E-06.
   The total correlation energy is -0.891338409146 a.u.
  Convergence information after    16 iterations: 
  Largest element of residual vector :  0.55925795E-06.
  Largest element of DIIS residual   :  0.41705599E-06.
   The total correlation energy is -0.891338421828 a.u.
  Convergence information after    17 iterations: 
  Largest element of residual vector :  0.25338326E-06.
  Largest element of DIIS residual   :  0.20654086E-06.
   The total correlation energy is -0.891338415151 a.u.
  Convergence information after    18 iterations: 
  Largest element of residual vector :  0.21007283E-06.
  Largest element of DIIS residual   :  0.14414034E-06.
   The total correlation energy is -0.891338420980 a.u.
  Convergence information after    19 iterations: 
  Largest element of residual vector :  0.64908496E-07.
  Largest element of DIIS residual   : -0.77050543E-07.
   The total correlation energy is -0.891338424493 a.u.
  Convergence information after    20 iterations: 
  Largest element of residual vector :  0.75904867E-07.
  Largest element of DIIS residual   :  0.45918117E-07.
   The total correlation energy is -0.891338428172 a.u.
  Convergence information after    21 iterations: 
  Largest element of residual vector :  0.22609087E-07.
  Largest element of DIIS residual   :  0.20455949E-07.
   The total correlation energy is -0.891338429588 a.u.
  Convergence information after    22 iterations: 
  Largest element of residual vector :  0.18938091E-07.
  Largest element of DIIS residual   :  0.10908250E-07.
   The total correlation energy is -0.891338430012 a.u.
  Convergence information after    23 iterations: 
  Largest element of residual vector :  0.85541658E-08.
  Largest element of DIIS residual   :  0.54679743E-08.
   The total correlation energy is -0.891338430163 a.u.
  Convergence information after    24 iterations: 
  Largest element of residual vector :  0.40027633E-08.
  Largest element of DIIS residual   :  0.32768962E-08.
   The total correlation energy is -0.891338430082 a.u.
  Convergence information after    25 iterations: 
  Largest element of residual vector :  0.24068123E-08.
  Largest element of DIIS residual   :  0.15926577E-08.
   The total correlation energy is -0.891338430067 a.u.
  Convergence information after    26 iterations: 
  Largest element of residual vector :  0.99420162E-09.
  Largest element of DIIS residual   :  0.82708870E-09.
   The total correlation energy is -0.891338430080 a.u.
  Convergence information after    27 iterations: 
  Largest element of residual vector :  0.82132926E-09.
  Largest element of DIIS residual   :  0.60364838E-09.
   The total correlation energy is -0.891338430122 a.u.
  Convergence information after    28 iterations: 
[...]
 term  0.453350155241813     
 final tnorm  0.791727580879727     
  norm contr. I: |<0|L dT/dx|0>|^2   0.000000000000000E+000
  norm contr. II: <0|[nabla(1+L)e-T][nabla e^T]|0>  0.453350155241813     
  total norm contribution  0.453350155241813     
 oo  2.173439644285847E-003
 vv  -1.52174853830499     
 vo -3.173294029729110E-002
  Correlated perturbed 1-el contribution to DBOC  -1.55130803895799       cm**-1
  SUM_I |dc_I/dx|^2 contribution to DBOC  0.780660947583161       cm**-1
 
 
  The total diagonal Born-Oppenheimer correction (DBOC) is:      0.0087527237 a.u.
  The total diagonal Born-Oppenheimer correction (DBOC) is:       1921.000811 cm-1
 
 Total CC energy including DBOC  -535.663300658997     
 First-order density matrix is being calculated  (Symmetry block 2, perturbation   3)
 Calculation of the contributions of <pq||rs> to dI(i,j)/dx required   4.0 seconds.
 Calculation of the contributions of <pq||rs> to dI(a,b)/dx required  11.0 seconds.
 Calculation of the contributions of <pq||rs> to dI(i,a)/dx required   6.6 seconds.
 First-order Z-vector equations are solved for 1 perturbation.
 Convergence reached after  23 iterations.
        U*G(pq,rs) contribution is being calculated
             (Symmetry block 2, perturbation   3)

 CCSD contribution to force constants 

        0.0000000000        0.0000000000        0.0000000000
        0.0000000000        0.0000000000        0.0000000000
        0.0000000000        0.0000000000        0.0000000000
        0.0000000000        0.0000000000        0.0000000000
        0.0000000000        0.0000000000        0.0000000000
        0.0000000000        0.0000000000        0.0000000000
        0.0000000000        0.0000000000        0.0000000000
        0.0000000000        0.0000000000        0.0000000000
        0.0000000000        0.0000000000        0.0000000000
        0.0000000000        0.0000000000        0.0000000000
        0.0000000000        0.0000000000        0.0000000000
        0.0000000000        0.0000000000        0.0000000000
        0.0000000000        0.0000000000        0.0000000000
        0.0000000000        0.0000000000        0.0000000000
        0.0000000000        0.0000000000        0.0000000000
        0.0000000000        0.0000000000        0.0000000000
        0.0000000000        0.0000000000        0.0000000000
        0.0000000000        0.0000000000        0.0000000000
        0.0000000000        0.0000000000        0.0000000000
        0.0000000000        0.0000000000        0.0000000000
        0.0000000000        0.0000000000        0.0000000000
        0.0000000000        0.0000000000        0.0000000000
        0.0000000000        0.0000000000        0.0000000000
        0.0000000000        0.0000000000        0.0000000000
        0.0000000000        0.0000000000        0.0000000000
        0.0000000000        0.0000000000        0.0000000000
        0.0733189919        0.0043158223       -0.0776348142

 CCSD contribution to dipole derivatives 

        0.0000000000        0.0000000000        0.0000000000
        0.0000000000        0.0000000000        0.0000000000
        0.0000000000        0.0000000000        0.0000000000
        0.0000000000        0.0000000000        0.0000000000
        0.0000000000        0.0000000000        0.0000000000
        0.0000000000        0.0000000000        0.0000000000
        0.0000000000        0.0000000000        0.0000000000
        0.0000000000        0.0000000000        0.0000000000
        0.0000000000        0.0000000000        0.0207230261
 @CHECKOUT-I, Total execution time (CPU/WALL):     1030.66/     288.87 seconds.
--executable xsdcc finished with status     0 in      289.05 seconds (walltime).
 --invoking executable--
/home/asmola/.local/bin/xanti
 @GETMEM-I,  Allocated    3814 MB of main memory.
 CCSD MO derivative gammas will be sorted to Mulliken order.
 @CHECKOUT-I, Total execution time (CPU/WALL):        6.34/       4.95 seconds.
--executable xanti finished with status     0 in        5.14 seconds (walltime).
 --invoking executable--
/home/asmola/.local/bin/xbcktrn
 @GETMEM-I,  Allocated    3814 MB of main memory.
 CCSD MO derivative gammas will be transformed to the AO basis.
 @CHECKOUT-I, Total execution time (CPU/WALL):       12.69/       2.64 seconds.
--executable xbcktrn finished with status     0 in        2.71 seconds (walltime).
 --invoking executable--
/home/asmola/.local/bin/xvdint
 @GETMEM-I,  Allocated    3814 MB of main memory.
 One- and two-electron integral derivatives are calculated
 for RHF-CC/MBPT hessians and dipole derivatives.
 Spherical gaussians are used.
  magnet F F
 Evaluation of 2el integral derivatives

                      Two-electron integral gradient
                      ------------------------------

                         O #1 x     0.0000000000
                         O #1 y     0.0000000000
                         H #2 x     0.0000000000
                         H #2 y     0.0000000000
                         CL#3 x     0.0000000000
                         CL#3 y     0.0000000000


 O #1       0.0000000000            0.0000000000           -0.0851494341
 H #2       0.0000000000            0.0000000000            0.0008611256
 CL#3       0.0000000000            0.0000000000            0.0842883085


 Evaluation of 2e integral derivatives required  142.20 seconds.
  contribution to Hessian
        0.0000000000        0.0000000000        0.0000000000
        0.0000000000        0.0000000000        0.0000000000
       -0.0851494341        0.0008611256        0.0842883085
 @CHECKOUT-I, Total execution time (CPU/WALL):      142.40/      23.98 seconds.
--executable xvdint finished with status     0 in       24.08 seconds (walltime).
 --invoking executable--
/home/asmola/.local/bin/xanti
 @GETMEM-I,  Allocated    3814 MB of main memory.
 CCSD MO gammas will be sorted to Mulliken order.
 @CHECKOUT-I, Total execution time (CPU/WALL):        9.34/      28.04 seconds.
--executable xanti finished with status     0 in       28.14 seconds (walltime).
 --invoking executable--
/home/asmola/.local/bin/xbcktrn
 @GETMEM-I,  Allocated    3814 MB of main memory.
 CCSD MO gammas will be transformed to the AO basis.
 @CHECKOUT-I, Total execution time (CPU/WALL):       23.46/       4.64 seconds.
--executable xbcktrn finished with status     0 in        4.73 seconds (walltime).
 --invoking executable--
/home/asmola/.local/bin/xvdint
 @GETMEM-I,  Allocated    3814 MB of main memory.
 One- and two-electron integral derivatives are calculated
 for RHF-CC/MBPT hessians and dipole derivatives.
 Spherical gaussians are used.
  magnet F F

                     Kinetic energy integral gradient
                     --------------------------------

                         O #1 x     0.2893976924
                         O #1 y    -0.1297431383
                         H #2 x     0.0565905933
                         H #2 y     0.1194925885
                         CL#3 x    -0.3459882858
                         CL#3 y     0.0102505498


 O #1       0.2893976924           -0.1297431383            0.0000000000
 H #2       0.0565905933            0.1194925885            0.0000000000
 CL#3      -0.3459882858            0.0102505498            0.0000000000



                   Nuclear attraction integral gradient
                   ------------------------------------

                         O #1 x   -25.2591046381
                         O #1 y     4.5342578012
                         H #2 x    -2.1690389195
                         H #2 y    -3.3643922880
                         CL#3 x    27.4281435576
                         CL#3 y    -1.1698655132


 O #1     -25.2591046381            4.5342578012            0.0000000000
 H #2      -2.1690389195           -3.3643922880            0.0000000000
 CL#3      27.4281435576           -1.1698655132            0.0000000000



                      Reorthonormalization gradient
                      -----------------------------

                         O #1 x     0.0000000000
                         O #1 y     0.0000000000
                         H #2 x     0.0000000000
                         H #2 y     0.0000000000
                         CL#3 x     0.0000000000
                         CL#3 y     0.0000000000


 O #1       0.0000000000            0.0000000000            0.0000000000
 H #2       0.0000000000            0.0000000000            0.0000000000
 CL#3       0.0000000000            0.0000000000            0.0000000000



                     Kinetic energy integral Hessian
                     -------------------------------


           Symmetry 1

           O #1 x      O #1 y      H #2 x      H #2 y      CL#3 x      CL#3 y

 O #1 x    0.357894
 O #1 y    0.050341   -0.125675
 H #2 x    0.024518   -0.080216   -0.030398
 H #2 y   -0.080216   -0.096880    0.079417    0.099487
 CL#3 x   -0.382412    0.029875    0.005880    0.000799    0.376532
 CL#3 y    0.029875    0.222556    0.000799   -0.002607   -0.030674   -0.219949


           Symmetry 2

           O #1 z      H #2 z      CL#3 z

 O #1 z   -0.283129
 H #2 z    0.069526   -0.068347
 CL#3 z    0.213603   -0.001179   -0.212424




           O #1 x      O #1 y      O #1 z      H #2 x      H #2 y      H #2 z

 O #1 x    0.357894
 O #1 y    0.050341   -0.125675
 O #1 z    0.000000    0.000000   -0.283129

 H #2 x    0.024518   -0.080216    0.000000   -0.030398
 H #2 y   -0.080216   -0.096880    0.000000    0.079417    0.099487
 H #2 z    0.000000    0.000000    0.069526    0.000000    0.000000   -0.068347

 CL#3 x   -0.382412    0.029875    0.000000    0.005880    0.000799    0.000000
 CL#3 y    0.029875    0.222556    0.000000    0.000799   -0.002607    0.000000
 CL#3 z    0.000000    0.000000    0.213603    0.000000    0.000000   -0.001179


           CL#3 x      CL#3 y      CL#3 z

 CL#3 x    0.376532
 CL#3 y   -0.030674   -0.219949
 CL#3 z    0.000000    0.000000   -0.212424




                   Nuclear attraction integral Hessian
                   -----------------------------------


           Symmetry 1

           O #1 x      O #1 y      H #2 x      H #2 y      CL#3 x      CL#3 y

 O #1 x  -13.360793
 O #1 y    0.734425    9.524163
 H #2 x   -0.953811    1.161064    0.799049
 H #2 y    1.149875    0.819580   -1.563226   -1.041828
 CL#3 x   14.314604   -1.895489    0.154762    0.413351  -14.469366
 CL#3 y   -1.884300  -10.343743    0.402162    0.222247    1.482138   10.121496


           Symmetry 2

           O #1 z      H #2 z      CL#3 z

 O #1 z   11.371632
 H #2 z   -1.586522    1.760642
 CL#3 z   -9.785110   -0.174120    9.959231




           O #1 x      O #1 y      O #1 z      H #2 x      H #2 y      H #2 z

 O #1 x  -13.360793
 O #1 y    0.734425    9.524163
 O #1 z    0.000000    0.000000   11.371632

 H #2 x   -0.953811    1.161064    0.000000    0.799049
 H #2 y    1.149875    0.819580    0.000000   -1.563226   -1.041828
 H #2 z    0.000000    0.000000   -1.586522    0.000000    0.000000    1.760642

 CL#3 x   14.314604   -1.895489    0.000000    0.154762    0.413351    0.000000
 CL#3 y   -1.884300  -10.343743    0.000000    0.402162    0.222247    0.000000
 CL#3 z    0.000000    0.000000   -9.785110    0.000000    0.000000   -0.174120


           CL#3 x      CL#3 y      CL#3 z

 CL#3 x  -14.469366
 CL#3 y    1.482138   10.121496
 CL#3 z    0.000000    0.000000    9.959231




                Highest order reorthonormalization Hessian
                ------------------------------------------


           Symmetry 1

           O #1 x      O #1 y      H #2 x      H #2 y      CL#3 x      CL#3 y

 O #1 x    0.000000
 O #1 y    0.000000    0.000000
 H #2 x    0.000000    0.000000    0.000000
 H #2 y    0.000000    0.000000    0.000000    0.000000
 CL#3 x    0.000000    0.000000    0.000000    0.000000    0.000000
 CL#3 y    0.000000    0.000000    0.000000    0.000000    0.000000    0.000000


           Symmetry 2

           O #1 z      H #2 z      CL#3 z

 O #1 z    0.000000
 H #2 z    0.000000    0.000000
 CL#3 z    0.000000    0.000000    0.000000




           O #1 x      O #1 y      O #1 z      H #2 x      H #2 y      H #2 z


           CL#3 x      CL#3 y      CL#3 z




                Electronic contributions to dipole moment
                -----------------------------------------

                               au             Debye

                    x      1.93472542      4.91758235
                    y      0.65309011      1.65998978

  Conversion factor used: 1 a.u. =   2.54174691 Debye 



   Electronic contributions to static part of dipole moment derivatives
   --------------------------------------------------------------------


                     Total dipole moment derivatives
                     -------------------------------


           Symmetry 1
                              Ex             Ey

               O #1 x    -8.70391626    -0.08466074
               O #1 y    -0.31732319    -8.74327624
               H #2 x    -0.54537444     0.06589312
               H #2 y     0.35546900    -0.44905315
               CL#3 x   -16.75070930     0.01876761
               CL#3 y    -0.03814581   -16.80767062

           Symmetry 2
                              Ez

               O #1 z    -8.39845866
               H #2 z    -0.75059263
               CL#3 z   -16.85094871



                       Ex          Ey          Ez

      O #1    x   -8.703916   -0.084661    0.000000
      O #1    y   -0.317323   -8.743276    0.000000
      O #1    z    0.000000    0.000000   -8.398459

      H #2    x   -0.545374    0.065893    0.000000
      H #2    y    0.355469   -0.449053    0.000000
      H #2    z    0.000000    0.000000   -0.750593

      CL#3    x  -16.750709    0.018768    0.000000
      CL#3    y   -0.038146  -16.807671    0.000000
      CL#3    z    0.000000    0.000000  -16.850949

 Evaluation of 1e integral derivatives required    1.66 seconds.
 Evaluation of 2el integral derivatives

                      Two-electron integral gradient
                      ------------------------------

                         O #1 x    11.7992765779
                         O #1 y    -2.3650311191
                         H #2 x     1.1287140769
                         H #2 y     1.8973353148
                         CL#3 x   -12.9279906548
                         CL#3 y     0.4676958043


 O #1      11.7992765779           -2.3650311191            0.0000000000
 H #2       1.1287140769            1.8973353148            0.0000000000
 CL#3     -12.9279906548            0.4676958043            0.0000000000


 Evaluation of 2e integral derivatives required  275.07 seconds.

                            Molecular gradient
                            ------------------

                         O #1 x    -0.0854320456
                         O #1 y     0.1829955447
                         H #2 x    -0.0780108076
                         H #2 y    -0.1813096374
                         CL#3 x     0.1634428533
                         CL#3 y    -0.0016859073


 O #1      -0.0854320456            0.1829955447            0.0000000000
 H #2      -0.0780108076           -0.1813096374            0.0000000000
 CL#3       0.1634428533           -0.0016859073            0.0000000000


  Molecular gradient norm 0.326E+00

                            Molecular hessian
                            -----------------


           Symmetry 1

           O #1 x      O #1 y      H #2 x      H #2 y      CL#3 x      CL#3 y

 O #1 x    2.053587
 O #1 y    0.733214    2.527335
 H #2 x   -0.344135   -1.353037    0.315391
 H #2 y   -1.185680   -3.372087    1.174076    3.309174
 CL#3 x   -1.709452    0.873313   -0.017083   -0.041713    1.726535
 CL#3 y    0.452466    0.844751   -0.007574   -0.001758   -0.444892   -0.842993


           Symmetry 2

           O #1 z      H #2 z      CL#3 z

 O #1 z    0.158189
 H #2 z   -0.051081    0.040463
 CL#3 z   -0.107108    0.005165    0.101942




           O #1 x      O #1 y      O #1 z      H #2 x      H #2 y      H #2 z

 O #1 x    2.053587
 O #1 y    0.733214    2.527335
 O #1 z    0.000000    0.000000    0.158189

 H #2 x   -0.344135   -1.353037    0.000000    0.315391
 H #2 y   -1.185680   -3.372087    0.000000    1.174076    3.309174
 H #2 z    0.000000    0.000000   -0.051081    0.000000    0.000000    0.040463

 CL#3 x   -1.709452    0.873313    0.000000   -0.017083   -0.041713    0.000000
 CL#3 y    0.452466    0.844751    0.000000   -0.007574   -0.001758    0.000000
 CL#3 z    0.000000    0.000000   -0.107108    0.000000    0.000000    0.005165


           CL#3 x      CL#3 y      CL#3 z

 CL#3 x    1.726535
 CL#3 y   -0.444892   -0.842993
 CL#3 z    0.000000    0.000000    0.101942




                           Total dipole moment
                           -------------------

                               au             Debye

                    x     -0.17970215     -0.45675738
                    y     -0.62049182     -1.57713317

  Conversion factor used: 1 a.u. =   2.54174691 Debye 



                     Total dipole moment derivatives
                     -------------------------------


           Symmetry 1
                              Ex             Ey

               O #1 x     0.06339751     0.21686104
               O #1 y     0.19731990     0.07676373
               H #2 x     0.05398273    -0.15809540
               H #2 y    -0.26545786    -0.12341974
               CL#3 x    -0.11738027    -0.05876563
               CL#3 y     0.06813820     0.04665615

           Symmetry 2
                              Ez

               O #1 z    -0.23765707
               H #2 z     0.21838207
               CL#3 z     0.01927477



                       Ex          Ey          Ez

      O #1    x    0.063398    0.216861    0.000000
      O #1    y    0.197320    0.076764    0.000000
      O #1    z    0.000000    0.000000   -0.237657

      H #2    x    0.053983   -0.158095    0.000000
      H #2    y   -0.265458   -0.123420    0.000000
      H #2    z    0.000000    0.000000    0.218382

      CL#3    x   -0.117380   -0.058766    0.000000
      CL#3    y    0.068138    0.046656    0.000000
      CL#3    z    0.000000    0.000000    0.019275

  Molecular gradient does not satisfy rotational invariance condition.
   rotational invariance in yz-plane :        0.0000E+00
   rotational invariance in xz-plane :        0.0000E+00
   rotational invariance in xy-plane :        -.1582E-01
 @CHECKOUT-I, Total execution time (CPU/WALL):      277.00/      39.93 seconds.
--executable xvdint finished with status     0 in       40.05 seconds (walltime).
 --invoking executable--
/home/asmola/.local/bin/xjoda
  @GTFLGS-I, Hessian will be transformed to curvilinear coordinates.
  @GTFLGS-I, Hessian will be transformed to curvilinear coordinates.
  igrd and ihes are                      0                     1
  gradient from JOBARC 
  -0.085432045642565   0.182995544730987   0.000000000000000
  -0.078010807623479  -0.181309637405683   0.000000000000000
   0.163442853266068  -0.001685907325300   0.000000000000000
 
  @PROJFCM-I, Projecting force constant matrix onto totally symmetric subspace.
  Largest difference between matrix elements of symmetrized
  and unsymmetrized FCM :     0.0000000000E+00.
 
  Summary of diagonal Born-Oppenheimer correction at the correlated level
  The total diagonal Born-Oppenheimer correction (DBOC) is:      0.0087527237 a.u.
  The total diagonal Born-Oppenheimer correction (DBOC) is:       1921.000811 cm-1
  The total diagonal Born-Oppenheimer correction (DBOC) is:            22.980 kJ/mole
  hellooooooo 
  readis is  F
 
 @CHECKOUT-I, Total execution time (CPU/WALL):        0.03/       0.09 seconds.
--executable xjoda finished with status     0 in        0.13 seconds (walltime).
  The final electronic energy is      -535.663300658996604 a.u. 
  This computation required                         3042.03 seconds (walltime).
