 --invoking executable--
/home/asmola/.local/bin/xjoda


   *************************************************************************
         <<<     CCCCCC     CCCCCC   |||     CCCCCC     CCCCCC   >>>
       <<<      CCC        CCC       |||    CCC        CCC         >>>
      <<<      CCC        CCC        |||   CCC        CCC            >>>
    <<<        CCC        CCC        |||   CCC        CCC              >>>
      <<<      CCC        CCC        |||   CCC        CCC            >>>
       <<<      CCC        CCC       |||    CCC        CCC         >>>
         <<<     CCCCCC     CCCCCC   |||     CCCCCC     CCCCCC   >>>
   *************************************************************************

     ****************************************************************
     * CFOUR Coupled-Cluster techniques for Computational Chemistry *
     ****************************************************************
 

   Department of Chemistry                Institut fuer Physikalische Chemie
   University of Florida                  Universitaet Mainz
   Gainesville, FL 32611, USA             D-55099 Mainz, Germany

   Department of Chemistry                Fakultaet fuer Chemie und Biowiss.
   Johns Hopkins University               Karlsruher Institut fuer Technologie
   Baltimore, MD 21218, USA               D-76131 Karlsruhe, Germany

   Department of Chemistry                Department of Physical Chemistry
   Southern Methodist University          Eotvos Lorand University
   Dallas, TX 75275, USA                  H-1053 Budapest, Hungary

 
                       Version 2.1
 
                     vincent.theory.phys.ucl.ac.uk                     
                     Thu 30 Jan 23:59:05 GMT 2025                      
                     integer*8 version is running
 
********************************************************************************
*                          Input from ZMAT file                                *
********************************************************************************
Hypochlorous acid DBOC calculation                                              
O                                                                               
H 1 ROH                                                                         
CL 1 ROCL 2 A                                                                   
                                                                                
ROH=1.7500000000000009                                                          
ROCL=1.683                                                                      
A=107.0                                                                         
                                                                                
                                                                                
*CFOUR(CALC=CCSD,BASIS=AUG-PCVTZ,SCF_CONV=10                                    
CC_CONV=10,DBOC=ON,MEMORY=500000000)                                            
                                                                                
%isotopes                                                                       
16                                                                              
1                                                                               
37                                                                              
********************************************************************************
  @GTFLGS-I, Hessian will be transformed to curvilinear coordinates.
    -------------------------------------------------------------------
                    CFOUR Control Parameters 
    -------------------------------------------------------------------
        External           Internal           Value            Units
          Name               Name
    -------------------------------------------------------------------
       ABCDTYPE             IABCDT         STANDARD    [  0]    ***   
       ANHARMONIC           IANHAR         OFF         [  0]    ***   
       ANH_ALGORIT          IANALG         STANDARD    [  0]    ***   
       ANH_DERIVAT          IANDER         SECOND      [  1]    ***   
       ANH_MODE             ANHMOD         VIBRATION   [  0]    ***   
       ANH_STEPSIZ          ICUBST             50000          x 10-6  
       ANH_SYMMETR          IANHSM         ABELIAN     [  0]    ***   
       AO_LADDERS           IAOLAD         SINGLEPASS  [  1]    ***   
       AV_SCF               IAVSCF         OFF         [  0]    ***   
       BASIS                IBASIS         AUG-PCVTZ   [ 51]    ***   
       BOTHVECTORS          BOTHVC         OFF         [  0]    ***   
       BOX_POTENT           IPIAB          OFF         [  0]    ***   
       BREIT                IBREIT         OFF         [  0]    ***   
       BRUCK_CONV           IBRTOL          10D-  4             ***   
       BRUECKNER            IBRKNR         OFF         [  0]    ***   
       BUFFERSIZE           IBUFFS              4096            ***   
       CACHE_RECS           ICHREC             10               ***   
       CALCLEVEL            ICLLVL         CCSD        [ 10]    ***   
       CCORBOPT             ICCORB         OFF         [  0]  x 0.01  
       CC_CONV              ICCCNV          10D- 10             ***   
       CC_EXPORDER          ICCEOR              5               ***   
       CC_EXTRAPOL          ICCEXT         DIIS        [  1]    ***   
       CC_GUESS             ICCGES         MP2         [  0]    ***   
       CC_MAXCYC            ICCCYC            100              cycles 
       CC_PROGRAM           ICCPRO         VCC         [  0]    ***   
       CHARGE               ICHRGE              0               ***   
       CHOLESKY             ICHOLE         OFF         [  0]    ***   
       CIS_CONV             ICISTL              5               ***   
       COMM_SIZE            IPSIZE            ***               ***   
       CONSTANT             ICONST         OLD         [  1]    ***   
       CONTINUUM            ICONTU         NONE        [  0]    ***   
       CONTRACTION          ICNTYP         GENERAL     [  1]    ***   
       COORDINATES          ICOORD         INTERNAL    [  0]    ***   
       CPHF_CONVER          ICPHFT          10D- 16             ***   
       CPHF_MAXCYC          ICPHFC             64              cycles 
       CUBIC                ICUBIC         OFF         [  0]    ***   
       CURVILINEAR          ICURVY         ON          [  1]    ***   
       DBOC                 IDBOC          ON          [  1]    ***   
       DCT                  IDCT           OFF         [  0]    ***   
       DERIV_LEV            IDRLVL         SECOND      [  2]    ***   
       DEVMEM_SIZE          IDVMEM          50000000           MByte  
       DIAG_MRCC            IEOMST          10D-  0             ***   
       DIFF_TYPE            IDIFTY         RELAXED     [  0]    ***   
       DIRECT               IDIRCT         OFF         [  0]    ***   
       DROPMO               IDRPMO      NONE         
       ECP                  IECP           OFF         [  0]    ***   
       EIGENVECTOR          IVEC                1               ***   
       EL_ANHARM            IELANH         OFF         [  0]    ***   
       EOMFOLLOW            IEOMSR         ENERGY      [  0]    ***   
       EOMIP                IEOMIP         OFF         [  0]    ***   
       EOMLEVEL             HBARFM         SAME        [  0]    ***   
       EOM_MRCC             IMRCCE         NEW         [  1]    ***   
       EOM_NONIT            EOMNON         OFF         [  0]    ***   
       EOM_NSING            IEOMSI          10D-  0             ***   
       EOM_NSTATES          IMRCCD         DAVIDSON    [  0]    ***   
       EOM_NTRIP            IEOMTR          10D-  0             ***   
       EOM_ORDER            IEXORD         ENERGY      [  0]    ***   
       EOM_PROPSTA          IEOMST              0               ***   
       ESTATE_CONV          IEXTOL          10D-  5             ***   
       ESTATE_DIAG          IEXDIG         ITERATIVE   [  0]    ***   
       ESTATE_LOCK          IESLOC         ON          [  1]    ***   
       ESTATE_MAXC          IEXMXC             40               ***   
       ESTATE_PROP          IEXPRP         OFF         [  0]    ***   
       EVAL_HESS            IRECAL              0            # of cyc.
       EXCITATION           IEXCIT              0               ***   
       EXCITE               IEXCIT         NONE        [  0]    ***   
       EXTERN_POT           IEXPOT         OFF         [  0]    ***   
       FCGRADNEW            IFCGNW         OFF         [  0]    ***   
       FC_FIELD             IFINFC              0             x 10-6  
       FD_CALTYPE           IFDCAL         GRADONLY    [  0]    ***   
       FD_PROJECT           IFDPRJ         OFF         [  1]    ***   
       FD_STEPSIZE          IDISFD              0            10-4 bohr
       FD_USEGROUP          IFDGRP         FULL        [  0]    ***   
       FILE_RECSIZ          IFLREC              4096           words  
       FINITE_PERT          IFIPER              0             x 10-6  
       FIXGEOM              IFIXGM         OFF         [  0]    ***   
       FOCK                 IFOCK          AO          [  1]    ***   
       FREQ_ALGORI          IVIALG         STANDARD    [  0]    ***   
       FROZEN_CORE          IFROCO         OFF         [  0]    ***   
       GAMMA_ABCD           IGABCD         STORE       [  0]    ***   
       GAMMA_ABCI           IGABCI         STORE       [  0]    ***   
       GENBAS_1             IGNBS1              0               ***   
       GENBAS_2             IGNBS2              0               ***   
       GENBAS_3             IGNBS3              0               ***   
       GENBAS_4             IGNBS4              0               ***   
       GEO_CONV             ICONTL              5              H/bohr 
       GEO_MAXCYC           IOPTCY             50               ***   
       GEO_MAXSTEP          IMXSTP            300            millibohr
       GEO_METHOD           INR            SINGLE_POINT[  5]    ***   
       GIAO                 IGIAO          OFF         [  1]    ***   
       GIMIC                IGIMIC         OFF         [  0]    ***   
       GRID                 IGRID          OFF         [  0]    ***   
       GRID_ALGO            IGALGO         SERIAL      [  0]    ***   
       GUESS                IGUESS         MOREAD      [  0]    ***   
       HBAR                 IHBAR          OFF         [  0]    ***   
       HESS_TYPE            IHESTP         SCF         [  0]    ***   
       HF2_FILE             IHF2Fl         USE         [  1]    ***   
       HFSTABILITY          ISTABL         OFF         [  0]    ***   
       INCORE               INCORE         OFF         [  0]    ***   
       INPUT_MRCC           IMRCC          ON          [  1]    ***   
       INTEGRALS            INTTYP         VMOL        [  1]    ***   
       JODA_PRINT           IJPRNT              0               ***   
       KEYWORD_OUT          IDMPKW         NO          [  0]    ***   
       LINDEP_TOL           ILINDP              8               ***   
       LINEQ_CONV           IZTACN          10D-  7           cycles  
       LINEQ_EXPOR          ILMAXD              5               ***   
       LINEQ_MAXCY          ILMAXC            100               ***   
       LINEQ_TYPE           ILTYPE         DIIS        [  1]    ***   
       LOCK_ORBOCC          ILOCOC         OFF         [  0]    ***   
       MEMORY_SIZE          IMEMSZ         500000000           words  
       MEM_UNIT             IMEMU          INTEGERWORDS[  0]    ***   
       MRCC                 IMRCCC         OFF         [  0]    ***   
       MULTIPLICTY          IMULTP              1               ***   
       NACOUPLING           IVCOUP         OFF         [  0]    ***   
       NEGEVAL              IDIE           ABORT       [  0]    ***   
       NEWNORM              INEWNO         OFF         [  0]    ***   
       NON-HF               INONHF         OFF         [  0]    ***   
       NTOP_TAMP            ITOPT2             15               ***   
       NUC_MODEL            INUCMO         POINT       [  0]    ***   
       OCCUPATION           IOCCU   ESTIMATED BY SCF 
       OPEN-SHELL           IOPEN          SPIN-ORBITAL[  0]    ***   
       OPTVIB               IOPTVB         OFF         [  0]    ***   
       ORBITALS             IORBTP         STANDARD    [  0]    ***   
       PARALLEL             IPARAL         ON          [  1]    ***   
       PARA_INT             IPINTS         ON          [  1]    ***   
       PARA_PRINT           IPPRIN              0               ***   
       PERT_ORB             IPTORB         STANDARD    [  0]    ***   
       POINTS               IGRDFD              0               ***   
       PRINT                IPRNT               0               ***   
       PROPS                IPROPS         OFF         [  0]    ***   
       PROP_INTEGR          IINTYP         INTERNAL    [  0]    ***   
       PSI                  IPSI           OFF         [  0]    ***   
       QC_ALG               IQCALG         FLM         [  0]    ***   
       QC_LINALG            IQCLIN         TRIDIAG     [  2]    ***   
       QC_MAXCYC            IQCMAX          10D-100           cycles  
       QC_MAXSCFCY          IQCMSC          10D- 15           cycles  
       QC_RTRUST            IQCRTR          10D-  0           x 10-3  
       QC_SKIPSCF           IQCSKI         OFF         [  0]    ***   
       QC_START             IQCSTA          10D-  1             ***   
       QRHFGUESS            IQGUES         OFF         [  0]    ***   
       QUARTIC              IQUART         OFF         [  0]    ***   
       RAMAN_INT            IRAMIN         OFF         [  0]    ***   
       RAMAN_ORB            IRAMRE         UNRELAXED   [  0]    ***   
       RDO                  IRDOFM         ON          [  1]    ***   
       REDUCE_REPR          REDREP         Ir          [  0]    ***   
       REFERENCE            IREFNC         RHF         [  0]    ***   
       RELATIVIST           IRELAT         OFF         [  0]    ***   
       RELAX_DENS           IRDENS         ON          [  1]    ***   
       RESET_FLAGS          IRESET         OFF         [  0]    ***   
       RESTART_CC           ICCRES         OFF         [  0]    ***   
       ROT_EVEC             ROTVEC              0               ***   
       SAVE_INTS            ISVINT         OFF         [  0]    ***   
       SCALE_ON             ISTCRT              0               ***   
       SCF_CONV             ISCFCV          10D- 10             ***   
       SCF_DAMPING          IDAMP               0             x 10-3  
       SCF_EXPORDE          IRPPOR              6               ***   
       SCF_EXPSTAR          IRPPLS              8               ***   
       SCF_EXTRAPO          IRPP           ON          [  1]    ***   
       SCF_MAXCYC           ISCFCY            150              cycles 
       SCF_NOSTOP           ISCFST         OFF         [  0]    ***   
       SCF_PRINT            ISCFPR              0               ***   
       SCF_PROG             ISCFPR         SCF         [  0]    ***   
       SD_FIELD             IFINSD              0             x 10-6  
       SOPERT               IPERSO         OFF         [  0]    ***   
       SPHERICAL            IDFGHI         ON          [  1]    ***   
       SPINORBIT            ISOCAL         OFF         [  0]    ***   
       SPINROTATIO          ISRCON         OFF         [  0]    ***   
       SPIN_FLIP            ISPFLP         OFF         [  0]    ***   
       SPIN_ORBIT           ISPORB         OFF         [  0]    ***   
       SPIN_SCAL            ISCSMP         OFF         [  0]    ***   
       STEEPSCALE           ISTPSC              1000          x 10-3  
       SUBGROUP             ISUBGP         DEFAULT     [  0]    ***   
       SUBGRPAXIS           ISBXYZ         X           [  0]    ***   
       SYMMETRY             ISYM           ON          [  0]    ***   
       SYM_CHECK            ISYMCK         OVERRIDE    [  1]    ***   
       T3_EXTRAPOL          IT3EXT         OFF         [  0]    ***   
       T4_EXTRAPOL          IT4EXP         OFF         [  0]    ***   
       TAMP_SUM             IEVERY              5               ***   
       TESTSUITE            ITESTS         OFF         [  0]    ***   
       THERMOCH             ITHERM         OFF         [  0]    ***   
       TOL_CHOLESK          ITOLCH          10D-  4             ***   
       TRANGRAD             IRESRM         OFF         [  0]    ***   
       TRANS_INV            ITRAIN         IGNORE      [  1]    ***   
       TREAT_PERT           ITREAT         SIMULTANEOUS[  0]    ***   
       TRIP_ALGORI          ITRALG         NORMAL      [  0]    ***   
       UIJ_THRESHO          IUIJTH              1               ***   
       UNITS                IUNITS         ANGSTROM    [  0]    ***   
       UNOS                 IUNOS          OFF         [  0]    ***   
       UPDATE_HESS          IHUPDT         ON          [  1]    ***   
       VIBPHASE             ISETPH         STANDARD    [  0]    ***   
       VIBRATION            IVIB           ANALYTIC    [  1]    ***   
       VIB_ALGORIT          IGEALG         STANDARD    [  0]    ***   
       VNATORB              IVNORB         OFF         [  0]    ***   
       VTRAN                IVTRAN         FULL/PARTIAL[  0]    ***   
       XFIELD               IXEFLD              0             x 10-6  
       XFORM_TOL            IXFTOL          10D- 11             ***   
       YFIELD               IYEFLD              0             x 10-6  
       ZFIELD               IZEFLD              0             x 10-6  
       ZSCALE_EXP           IZEXPS         OFF         [  0]    ***   
    -------------------------------------------------------------------
   3 entries found in Z-matrix 
   Job Title : Hypochlorous acid DBOC calculation                                              
   There are  3 unique internal coordinates.
   Of these,  0 will be optimized.
   User supplied Z-matrix: 
--------------------------------------------------------------------------------
       SYMBOL    BOND      LENGTH    ANGLE     ANGLE     DIHED     ANGLE
                  TO      (ANGST)    WRT      (DEG)      WRT      (DEG)
--------------------------------------------------------------------------------
        O    
        H          1         ROH  
        CL         1         ROCL       2        A    
                  *Initial values for internal coordinates* 
                      Name             Value
                        ROH             1.7500000000
                        ROCL            1.6830000000
                        A             107.0000000000
--------------------------------------------------------------------------------
  read isotopes from ZMAT file 
   Rotational constants (in cm-1): 
          0.4531011635             0.4861016295             6.6742455617
   Rotational constants (in MHz): 
      13583.6330558665         14572.9622770238        200088.8762554777
********************************************************************************
   The full molecular point group is C s .
   The largest Abelian subgroup of the full molecular point group is C s .
   The computational point group is C s .
********************************************************************************
--------------------------------------------------------------------------------
   Analysis of internal coordinates specified by Z-matrix 
--------------------------------------------------------------------------------
   *The nuclear repulsion energy is   48.440389950539306 a.u.
   *There are   3 degrees of freedom within the tot. symm. molecular subspace.
   *Z-matrix requests optimization of   0 coordinates.
   *The optimization is constrained.
   *The following   3 parameters can have non-zero 
    derivatives within the totally symmetric subspace:
             A    [ 3]  ROH  [ 1]  ROCL [ 2]
   *The following   0 parameters are to be optimized:

   *The following coordinates must be varied in an  unconstrained optimization.
             A    [ 3]  ROH  [ 1]  ROCL [ 2]
--------------------------------------------------------------------------------


 ----------------------------------------------------------------
         Coordinates used in calculation (QCOMP) 
 ----------------------------------------------------------------
 Z-matrix   Atomic            Coordinates (in bohr)
  Symbol    Number           X              Y              Z
 ----------------------------------------------------------------
     O         8        -2.14700682     0.24708479     0.00000000
     H         1        -3.38578609    -2.81915338     0.00000000
     CL       17         1.02130526    -0.03005166     0.00000000
 ----------------------------------------------------------------
 
   Interatomic distance matrix (Angstroms) 
 
                 O             H             CL   
                [ 1]        [ 2]        [ 3]
  O    [ 1]     0.00000
  H    [ 2]     1.75000     0.00000
  CL   [ 3]     1.68300     2.75993     0.00000
 rotcon2
   Rotational constants (in cm-1): 
          6.6742455617             0.4861016295             0.4531011635
   Rotational constants (in MHz): 
     200088.8762554782         14572.9622770238         13583.6330558665
  ECPDATA file not present.   Using default ECPDATA. 
  @GTFLGS-I, Hessian will be transformed to curvilinear coordinates.
  There are  157 basis functions.
 @CHECKOUT-I, Total execution time (CPU/WALL):        0.19/       0.24 seconds.
--executable xjoda finished with status     0 in        0.29 seconds (walltime).
 --invoking executable--
/home/asmola/.local/bin/xvmol
 SERIAL VERSION OF MOLECULE STARTED
********************************************************************************
                    INPUT FROM MOL FILE
********************************************************************************
INTGRL        1    0    1    0    0    0    0    0    0                         
         *** CFOUR Program System (Release V0.1) ***                            
Hypochlorous acid DBOC calculation                                              
    3    1 Z          0.10E-08              0    0                              
   9999.00      3.00                                                            
          8.00000000    1    4    1    1    1    1                              
O #1  -2.147006822968436   0.247084794377788   0.000000000000000                
   13    7                                                                      
   15330.0000000000       5.080000000000000E-004 -1.150000000000000E-004        
  0.000000000000000E+000  0.000000000000000E+000  0.000000000000000E+000        
  0.000000000000000E+000  0.000000000000000E+000                                
   2299.00000000000       3.929000000000000E-003 -8.950000000000000E-004        
  0.000000000000000E+000  0.000000000000000E+000  0.000000000000000E+000        
  0.000000000000000E+000  0.000000000000000E+000                                
   522.400000000000       2.024300000000000E-002 -4.636000000000000E-003        
  0.000000000000000E+000  0.000000000000000E+000  0.000000000000000E+000        
  0.000000000000000E+000  0.000000000000000E+000                                
   147.300000000000       7.918100000000000E-002 -1.872400000000000E-002        
  0.000000000000000E+000  0.000000000000000E+000  0.000000000000000E+000        
  0.000000000000000E+000  0.000000000000000E+000                                
   47.5500000000000       0.230687000000000      -5.846300000000000E-002        
  0.000000000000000E+000  0.000000000000000E+000  0.000000000000000E+000        
  0.000000000000000E+000  0.000000000000000E+000                                
   16.7600000000000       0.433118000000000      -0.136463000000000             
  0.000000000000000E+000  0.000000000000000E+000  0.000000000000000E+000        
  0.000000000000000E+000  0.000000000000000E+000                                
   6.20700000000000       0.350260000000000      -0.175740000000000             
  0.000000000000000E+000  0.000000000000000E+000  0.000000000000000E+000        
  0.000000000000000E+000  0.000000000000000E+000                                
   1.75200000000000       4.272800000000000E-002  0.160934000000000             
   1.00000000000000       0.000000000000000E+000  0.000000000000000E+000        
  0.000000000000000E+000  0.000000000000000E+000                                
  0.688200000000000      -8.154000000000000E-003  0.603418000000000             
  0.000000000000000E+000  0.000000000000000E+000  0.000000000000000E+000        
  0.000000000000000E+000  0.000000000000000E+000                                
  0.238400000000000       2.381000000000000E-003  0.378765000000000             
  0.000000000000000E+000   1.00000000000000       0.000000000000000E+000        
  0.000000000000000E+000  0.000000000000000E+000                                
   7.84500000000000       0.000000000000000E+000  0.000000000000000E+000        
  0.000000000000000E+000  0.000000000000000E+000   1.00000000000000             
  0.000000000000000E+000  0.000000000000000E+000                                
   21.0320000000000       0.000000000000000E+000  0.000000000000000E+000        
  0.000000000000000E+000  0.000000000000000E+000  0.000000000000000E+000        
   1.00000000000000       0.000000000000000E+000                                
  7.376000000000001E-002  0.000000000000000E+000  0.000000000000000E+000        
  0.000000000000000E+000  0.000000000000000E+000  0.000000000000000E+000        
  0.000000000000000E+000   1.00000000000000                                     
    8    6                                                                      
   34.4600000000000       1.592800000000000E-002  0.000000000000000E+000        
  0.000000000000000E+000  0.000000000000000E+000  0.000000000000000E+000        
  0.000000000000000E+000                                                        
   7.74900000000000       9.974000000000000E-002  0.000000000000000E+000        
  0.000000000000000E+000  0.000000000000000E+000  0.000000000000000E+000        
  0.000000000000000E+000                                                        
   2.28000000000000       0.310492000000000       0.000000000000000E+000        
  0.000000000000000E+000  0.000000000000000E+000  0.000000000000000E+000        
  0.000000000000000E+000                                                        
  0.715600000000000       0.491026000000000        1.00000000000000             
  0.000000000000000E+000  0.000000000000000E+000  0.000000000000000E+000        
  0.000000000000000E+000                                                        
  0.214000000000000       0.336337000000000       0.000000000000000E+000        
   1.00000000000000       0.000000000000000E+000  0.000000000000000E+000        
  0.000000000000000E+000                                                        
   15.1590000000000       0.000000000000000E+000  0.000000000000000E+000        
  0.000000000000000E+000   1.00000000000000       0.000000000000000E+000        
  0.000000000000000E+000                                                        
   57.4370000000000       0.000000000000000E+000  0.000000000000000E+000        
  0.000000000000000E+000  0.000000000000000E+000   1.00000000000000             
  0.000000000000000E+000                                                        
  5.974000000000000E-002  0.000000000000000E+000  0.000000000000000E+000        
  0.000000000000000E+000  0.000000000000000E+000  0.000000000000000E+000        
   1.00000000000000                                                             
    4    4                                                                      
   2.31400000000000        1.00000000000000       0.000000000000000E+000        
  0.000000000000000E+000  0.000000000000000E+000                                
  0.645000000000000       0.000000000000000E+000   1.00000000000000             
  0.000000000000000E+000  0.000000000000000E+000                                
   15.8580000000000       0.000000000000000E+000  0.000000000000000E+000        
   1.00000000000000       0.000000000000000E+000                                
  0.214000000000000       0.000000000000000E+000  0.000000000000000E+000        
  0.000000000000000E+000   1.00000000000000                                     
    2    2                                                                      
   1.42800000000000        1.00000000000000       0.000000000000000E+000        
  0.500000000000000       0.000000000000000E+000   1.00000000000000             
          1.00000000    1    3    1    1    1                                   
H #2  -3.385786089118000  -2.819153380272737   0.000000000000000                
    6    4                                                                      
   33.8700000000000       6.068000000000000E-003  0.000000000000000E+000        
  0.000000000000000E+000  0.000000000000000E+000                                
   5.09500000000000       4.530800000000000E-002  0.000000000000000E+000        
  0.000000000000000E+000  0.000000000000000E+000                                
   1.15900000000000       0.202822000000000       0.000000000000000E+000        
  0.000000000000000E+000  0.000000000000000E+000                                
  0.325800000000000       0.503903000000000        1.00000000000000             
  0.000000000000000E+000  0.000000000000000E+000                                
  0.102700000000000       0.383421000000000       0.000000000000000E+000        
   1.00000000000000       0.000000000000000E+000                                
  2.526000000000000E-002  0.000000000000000E+000  0.000000000000000E+000        
  0.000000000000000E+000   1.00000000000000                                     
    3    3                                                                      
   1.40700000000000        1.00000000000000       0.000000000000000E+000        
  0.000000000000000E+000                                                        
  0.388000000000000       0.000000000000000E+000   1.00000000000000             
  0.000000000000000E+000                                                        
  0.102000000000000       0.000000000000000E+000  0.000000000000000E+000        
   1.00000000000000                                                             
    2    2                                                                      
   1.05700000000000        1.00000000000000       0.000000000000000E+000        
  0.247000000000000       0.000000000000000E+000   1.00000000000000             
         17.00000000    1    4    1    1    1    1                              
CL#3   1.021305261101602  -0.030051662736866   0.000000000000000                
   18    8                                                                      
   456100.000000000       4.930000000000000E-005 -1.380000000000000E-005        
  4.200000000000000E-006  0.000000000000000E+000  0.000000000000000E+000        
  0.000000000000000E+000  0.000000000000000E+000  0.000000000000000E+000        
   68330.0000000000       3.830000000000000E-004 -1.073000000000000E-004        
  3.240000000000000E-005  0.000000000000000E+000  0.000000000000000E+000        
  0.000000000000000E+000  0.000000000000000E+000  0.000000000000000E+000        
   15550.0000000000       2.008500000000000E-003 -5.651000000000000E-004        
  1.711000000000000E-004  0.000000000000000E+000  0.000000000000000E+000        
  0.000000000000000E+000  0.000000000000000E+000  0.000000000000000E+000        
   4405.00000000000       8.385600000000000E-003 -2.361400000000000E-003        
  7.142000000000000E-004  0.000000000000000E+000  0.000000000000000E+000        
  0.000000000000000E+000  0.000000000000000E+000  0.000000000000000E+000        
   1439.00000000000       2.947030000000000E-002 -8.458900000000000E-003        
  2.567000000000000E-003  0.000000000000000E+000  0.000000000000000E+000        
  0.000000000000000E+000  0.000000000000000E+000  0.000000000000000E+000        
   520.400000000000       8.783249999999999E-002 -2.596380000000000E-002        
  7.885500000000000E-003  0.000000000000000E+000  0.000000000000000E+000        
  0.000000000000000E+000  0.000000000000000E+000  0.000000000000000E+000        
   203.100000000000       0.211473000000000      -6.863619999999999E-002        
  2.108670000000000E-002  0.000000000000000E+000  0.000000000000000E+000        
  0.000000000000000E+000  0.000000000000000E+000  0.000000000000000E+000        
   83.9600000000000       0.365364000000000      -0.141874000000000             
  4.422640000000000E-002  0.000000000000000E+000  0.000000000000000E+000        
  0.000000000000000E+000  0.000000000000000E+000  0.000000000000000E+000        
   36.2000000000000       0.340884000000000      -0.199319000000000             
  6.516700000000000E-002  0.000000000000000E+000  0.000000000000000E+000        
  0.000000000000000E+000  0.000000000000000E+000  0.000000000000000E+000        
   15.8300000000000       0.102133000000000      -1.956620000000000E-002        
  6.030100000000000E-003  0.000000000000000E+000  0.000000000000000E+000        
  0.000000000000000E+000  0.000000000000000E+000  0.000000000000000E+000        
   6.33400000000000       3.116800000000000E-003  0.499741000000000             
 -0.206495000000000       0.000000000000000E+000  0.000000000000000E+000        
  0.000000000000000E+000  0.000000000000000E+000  0.000000000000000E+000        
   2.69400000000000       1.057500000000000E-003  0.563736000000000             
 -0.405871000000000       0.000000000000000E+000  0.000000000000000E+000        
  0.000000000000000E+000  0.000000000000000E+000  0.000000000000000E+000        
  0.976800000000000      -3.780000000000000E-004  7.903250000000001E-002        
  7.595580000000000E-002   1.00000000000000       0.000000000000000E+000        
  0.000000000000000E+000  0.000000000000000E+000  0.000000000000000E+000        
  0.431300000000000       1.561000000000000E-004 -8.350900000000000E-003        
  0.725661000000000       0.000000000000000E+000  0.000000000000000E+000        
  0.000000000000000E+000  0.000000000000000E+000  0.000000000000000E+000        
  0.162500000000000      -5.140000000000000E-005  2.324600000000000E-003        
  0.394423000000000       0.000000000000000E+000   1.00000000000000             
  0.000000000000000E+000  0.000000000000000E+000  0.000000000000000E+000        
   15.0640000000000       0.000000000000000E+000  0.000000000000000E+000        
  0.000000000000000E+000  0.000000000000000E+000  0.000000000000000E+000        
   1.00000000000000       0.000000000000000E+000  0.000000000000000E+000        
   2.87400000000000       0.000000000000000E+000  0.000000000000000E+000        
  0.000000000000000E+000  0.000000000000000E+000  0.000000000000000E+000        
  0.000000000000000E+000   1.00000000000000       0.000000000000000E+000        
  5.910000000000000E-002  0.000000000000000E+000  0.000000000000000E+000        
  0.000000000000000E+000  0.000000000000000E+000  0.000000000000000E+000        
  0.000000000000000E+000  0.000000000000000E+000   1.00000000000000             
   12    7                                                                      
   663.300000000000       2.404500000000000E-003 -6.521000000000000E-004        
  0.000000000000000E+000  0.000000000000000E+000  0.000000000000000E+000        
  0.000000000000000E+000  0.000000000000000E+000                                
   156.800000000000       1.921480000000000E-002 -5.194500000000000E-003        
  0.000000000000000E+000  0.000000000000000E+000  0.000000000000000E+000        
  0.000000000000000E+000  0.000000000000000E+000                                
   49.9800000000000       8.850970000000000E-002 -2.469380000000000E-002        
  0.000000000000000E+000  0.000000000000000E+000  0.000000000000000E+000        
  0.000000000000000E+000  0.000000000000000E+000                                
   18.4200000000000       0.256020000000000      -7.281670000000000E-002        
  0.000000000000000E+000  0.000000000000000E+000  0.000000000000000E+000        
  0.000000000000000E+000  0.000000000000000E+000                                
   7.24000000000000       0.436927000000000      -0.134030000000000             
  0.000000000000000E+000  0.000000000000000E+000  0.000000000000000E+000        
  0.000000000000000E+000  0.000000000000000E+000                                
   2.92200000000000       0.350334000000000      -9.477420000000000E-002        
  0.000000000000000E+000  0.000000000000000E+000  0.000000000000000E+000        
  0.000000000000000E+000  0.000000000000000E+000                                
   1.02200000000000       5.854950000000000E-002  0.262289000000000             
   1.00000000000000       0.000000000000000E+000  0.000000000000000E+000        
  0.000000000000000E+000  0.000000000000000E+000                                
  0.381800000000000      -4.584200000000000E-003  0.564667000000000             
  0.000000000000000E+000  0.000000000000000E+000  0.000000000000000E+000        
  0.000000000000000E+000  0.000000000000000E+000                                
  0.130100000000000       2.269700000000000E-003  0.341250000000000             
  0.000000000000000E+000   1.00000000000000       0.000000000000000E+000        
  0.000000000000000E+000  0.000000000000000E+000                                
   9.48000000000000       0.000000000000000E+000  0.000000000000000E+000        
  0.000000000000000E+000  0.000000000000000E+000   1.00000000000000             
  0.000000000000000E+000  0.000000000000000E+000                                
   3.66800000000000       0.000000000000000E+000  0.000000000000000E+000        
  0.000000000000000E+000  0.000000000000000E+000  0.000000000000000E+000        
   1.00000000000000       0.000000000000000E+000                                
  4.190000000000000E-002  0.000000000000000E+000  0.000000000000000E+000        
  0.000000000000000E+000  0.000000000000000E+000  0.000000000000000E+000        
  0.000000000000000E+000   1.00000000000000                                     
    5    5                                                                      
   1.04600000000000        1.00000000000000       0.000000000000000E+000        
  0.000000000000000E+000  0.000000000000000E+000  0.000000000000000E+000        
  0.344000000000000       0.000000000000000E+000   1.00000000000000             
  0.000000000000000E+000  0.000000000000000E+000  0.000000000000000E+000        
   17.9570000000000       0.000000000000000E+000  0.000000000000000E+000        
   1.00000000000000       0.000000000000000E+000  0.000000000000000E+000        
   5.76000000000000       0.000000000000000E+000  0.000000000000000E+000        
  0.000000000000000E+000   1.00000000000000       0.000000000000000E+000        
  0.135000000000000       0.000000000000000E+000  0.000000000000000E+000        
  0.000000000000000E+000  0.000000000000000E+000   1.00000000000000             
    3    3                                                                      
  0.706000000000000        1.00000000000000       0.000000000000000E+000        
  0.000000000000000E+000                                                        
   11.7790000000000       0.000000000000000E+000   1.00000000000000             
  0.000000000000000E+000                                                        
  0.312000000000000       0.000000000000000E+000  0.000000000000000E+000        
   1.00000000000000                                                             
FINISH                                                                          
 
********************************************************************************
 ONE- AND TWO-ELECTRON INTEGRALS OVER SYMMETRY-ADAPTED AOS ARE CALCULATED.

  SPHERICAL HARMONICS ARE USED.
  
  INTEGRALS LESS THAN  0.10E-13 ARE NEGLECTED.

  NUCLEAR REPULSION ENERGY :   48.4403899505 A.U.
  @MOLECU-I, ONE ELECTRON INTEGRALS (CPU/WALL):        0.04/       0.05 SECONDS.
  @TWOEL-I,   14083096 INTEGRALS OF SYMMETRY TYPE  I I I I
  @TWOEL-I,   13239836 INTEGRALS OF SYMMETRY TYPE  I J I J
  @TWOEL-I,    6856057 INTEGRALS OF SYMMETRY TYPE  I I J J
  @TWOEL-I, TOTAL NUMBER OF 2-E INTEGRALS   34178989.
  @MOLECU-I, TWO ELECTRON INTEGRALS (CPU/WALL):       53.14/       8.31 SECONDS.
 @CHECKOUT-I, Total execution time (CPU/WALL):       53.19/       8.38 seconds.

Running with 14 threads/proc

--executable xvmol finished with status     0 in        8.49 seconds (walltime).
 --invoking executable--
/home/asmola/.local/bin/xvmol2ja
 @GETMEM-I,  Allocated    3814 MB of main memory.
 @CHECKOUT-I, Total execution time (CPU/WALL):        0.10/       0.04 seconds.
--executable xvmol2ja finished with status     0 in        0.07 seconds (walltime).
 --invoking executable--
/home/asmola/.local/bin/xvscf
  There are  157 functions in the AO basis.

  There are 2 irreducible representations.

       Irrep        # of functions
         1                104
         2                 53


  Parameters for SCF calculation: 
        SCF reference function:  RHF  
  Maximum number of iterations:  150
     Full symmetry point group: C s 
     Computational point group: C s 
        Initial density matrix: MOREAD                 
     SCF convergence tolerance: 10**(-10)
  DIIS convergence acceleration:  ON
          Latest start for DIIS:   8
                     DIIS order:   6

  Memory information:    1209746 words required.
  Fock matrices are constructed from AO integral file.
 @GETMEM-I,  Allocated       9 MB of main memory.
  Initialization and symmetry analysis required      0.002 seconds.

  @INITGES-I, Occupancies from core Hamiltonian:

          Alpha population by irrep:  10    3
           Beta population by irrep:  10    3


 total no. of electrons in initial guess :  0.000000000000000E+000
  --------------------------------------------------------------------
  Iteration         Total Energy            Largest Density Difference
  --------------------------------------------------------------------
       0            48.440389950539313              0.0000000000D+00
   current occupation vector 
    10  3
    10  3
       1          -366.456929060552909              0.1325302670D+02
   current occupation vector 
    10  3
    10  3
       2          -343.561315587879392              0.1321620500D+02
   current occupation vector 
    10  3
    10  3
       3          -422.419281742179180              0.1067451354D+02
   current occupation vector 
    10  3
    10  3
       4          -340.673066473808035              0.1068408755D+02
   current occupation vector 
    10  3
    10  3
       5          -422.174859742859496              0.1062632811D+02
   current occupation vector 
    10  3
    10  3
       6          -340.580675150226796              0.1062660397D+02
   current occupation vector 
    10  3
    10  3
       7          -422.166602787522891              0.1062458337D+02
   current occupation vector 
    10  3
    10  3
       8          -340.577808156399215              0.1062459151D+02
   current occupation vector 
    10  3
    10  3
       9          -445.114687535531516              0.8445904501D+01
   current occupation vector 
    10  3
    10  3
      10          -462.092997161116045              0.1861864080D+01
   current occupation vector 
    10  3
    10  3
      11          -465.017643333341368              0.3317464742D+00
   current occupation vector 
    10  3
    10  3
      12          -465.545283421425950              0.9614283462D-01
   current occupation vector 
    10  3
    10  3
      13          -477.087413164834004              0.1433737789D+01
   current occupation vector 
    10  3
    10  3
      14          -477.213817461915312              0.1817075258D+00
   current occupation vector 
    10  3
    10  3
      15          -508.787164455948016              0.7372755902D+01
   current occupation vector 
    10  3
    10  3
      16          -519.142931687284204              0.7371982841D+01
   current occupation vector 
    10  3
    10  3
      17          -525.152206796121618              0.4226384938D+01
   current occupation vector 
    11  2
    11  2
      18          -533.485409959785102              0.2138906221D+01
   current occupation vector 
    10  3
    10  3
      19          -534.367296798675739              0.1425986328D+01
   current occupation vector 
    10  3
    10  3
      20          -534.705669198464193              0.9266031995D+00
   current occupation vector 
    10  3
    10  3
      21          -534.741158841065499              0.2423778628D+00
   current occupation vector 
    10  3
    10  3
      22          -534.747086309165070              0.6248790714D-01
   current occupation vector 
    10  3
    10  3
      23          -534.748033774074770              0.3767930075D-01
   current occupation vector 
    10  3
    10  3
      24          -534.748114083867335              0.1073917777D-01
   current occupation vector 
    10  3
    10  3
      25          -534.748125673253639              0.5236939238D-02
   current occupation vector 
    10  3
    10  3
      26          -534.748126794819768              0.1417689962D-02
   current occupation vector 
    10  3
    10  3
      27          -534.748126923339441              0.4427572946D-03
   current occupation vector 
    10  3
    10  3
      28          -534.748126942919271              0.1618900995D-03
   current occupation vector 
    10  3
    10  3
      29          -534.748126945957779              0.6827113713D-04
   current occupation vector 
    10  3
    10  3
      30          -534.748126946400475              0.2437970927D-04
   current occupation vector 
    10  3
    10  3
      31          -534.748126946430375              0.5147898393D-05
   current occupation vector 
    10  3
    10  3
      32          -534.748126946438788              0.3338047727D-05
   current occupation vector 
    10  3
    10  3
      33          -534.748126946441175              0.1227710902D-05
   current occupation vector 
    10  3
    10  3
      34          -534.748126946438106              0.3416263562D-06
   current occupation vector 
    10  3
    10  3
      35          -534.748126946436969              0.1587903504D-06
   current occupation vector 
    10  3
    10  3
      36          -534.748126946434240              0.7473845876D-07
   current occupation vector 
    10  3
    10  3
      37          -534.748126946436628              0.3293114936D-07
   current occupation vector 
    10  3
    10  3
      38          -534.748126946441062              0.1592600385D-07
   current occupation vector 
    10  3
    10  3
      39          -534.748126946441516              0.5244020329D-08
   current occupation vector 
    10  3
    10  3
      40          -534.748126946439925              0.1483514228D-08
   current occupation vector 
    10  3
    10  3
      41          -534.748126946440493              0.7594149129D-09
   current occupation vector 
    10  3
    10  3
      42          -534.748126946441403              0.3827873782D-09
   current occupation vector 
    10  3
    10  3
      43          -534.748126946440152              0.1942878844D-09
   current occupation vector 
    10  3
    10  3

  SCF has converged.

 Density matrix saved to file den.dat
 total electron number:   26.0000000000002     
     E(SCF)=      -534.748126946437196              0.4429301370D-10

  Eigenvector printing suppressed.

 @PUTMOS-I, Writing converged MOs to NEWMOS. 
 @PUTMOS-I, Symmetry   1 Full Blocks 26 Partial Blocksize   0
 @PUTMOS-I, Symmetry   2 Full Blocks 13 Partial Blocksize   1
 @PUTFOCK-I, Writing converged Fock matrix to NEWFOCK. 
 @PUTFOCK-I, Symmetry   1 Full Blocks 26 Partial Blocksize   0
 @PUTFOCK-I, Symmetry   2 Full Blocks 13 Partial Blocksize   1


 
  ORBITAL EIGENVALUES (ALPHA)  (1H = 27.2113834 eV)

       MO #        E(hartree)               E(eV)           FULLSYM    COMPSYM
       ----   --------------------   --------------------   -------   ---------
    1     1        -104.8839873694       -2854.0383928293     A'        A'  (1)
    2     2         -20.6704277868        -562.4709355484     A'        A'  (1)
    3     3         -10.6036736937        -288.5406303271     A'        A'  (1)
    4     4          -8.0702992706        -219.6040076055     A'        A'  (1)
    5     5          -8.0682051704        -219.5470242427     A'        A'  (1)
    6   105          -8.0679848688        -219.5410295300     A''       A'' (2)
    7     6          -1.3500287257         -36.7361492565     A'        A'  (1)
    8     7          -1.0263489330         -27.9283743176     A'        A'  (1)
    9   106          -0.6022050930         -16.3868336705     A''       A'' (2)
   10     8          -0.5950289609         -16.1915611904     A'        A'  (1)
   11     9          -0.5701349817         -15.5141615770     A'        A'  (1)
   12   107          -0.4339511859         -11.8084120964     A''       A'' (2)
   13    10          -0.4205295158         -11.4431898863     A'        A'  (1)
  +++++++++++++++++++++++++++++++++++++++++++++++++++++++++++++++++++++++++++++
   14    11          -0.0418530212          -1.1388786059     A'        A'  (1)
   15    12           0.0528867247           1.4391209439     A'        A'  (1)
   16    13           0.0812246483           2.2102350453     A'        A'  (1)
   17   108           0.1178427119           3.2066632134     A''       A'' (2)
   18    14           0.1181482061           3.2149761350     A'        A'  (1)
   19    15           0.1482714365           4.0346709063     A'        A'  (1)
   20    16           0.1638502242           4.4585912712     A'        A'  (1)
   21    17           0.1763969233           4.8000043098     A'        A'  (1)
   22   109           0.1912544497           5.2042981569     A''       A'' (2)
   23    18           0.2228546864           6.0641843147     A'        A'  (1)
   24   110           0.2449195605           6.6646000633     A''       A'' (2)
   25    19           0.2767758103           7.5314526889     A'        A'  (1)
   26    20           0.3075663123           8.3693048457     A'        A'  (1)
   27    21           0.3389427397           9.2231008413     A'        A'  (1)
   28   111           0.3706875178          10.0869201697     A''       A'' (2)
   29    22           0.3862982866          10.5117107826     A'        A'  (1)
   30   112           0.4257904166          11.5863462748     A''       A'' (2)
   31    23           0.4582353838          12.4692187163     A'        A'  (1)
   32    24           0.5091177866          13.8537992871     A'        A'  (1)
   33    25           0.5896893432          16.0462628037     A'        A'  (1)
   34   113           0.6185517866          16.8316498172     A''       A'' (2)
   35    26           0.6412319736          17.4488090824     A'        A'  (1)
   36    27           0.6689428726          18.2028609794     A'        A'  (1)
   37   114           0.7396052761          20.1256827332     A''       A'' (2)
   38    28           0.7512258239          20.4418939145     A'        A'  (1)
   39    29           0.7658051069          20.8386163746     A'        A'  (1)
   40   115           0.7773550097          21.1529052057     A''       A'' (2)
   41    30           0.7952097175          21.6387565062     A'        A'  (1)
   42   116           0.8216455784          22.3581128540     A''       A'' (2)
   43    31           0.8247885152          22.4436365120     A'        A'  (1)
   44   117           0.8851152416          24.0852101910     A''       A'' (2)
   45    32           0.9030265831          24.5726025729     A'        A'  (1)
   46   118           0.9391262315          25.5549239465     A''       A'' (2)
   47    33           0.9595100753          26.1095965357     A'        A'  (1)
   48   119           0.9645350617          26.2463333679     A''       A'' (2)
   49    34           0.9854370876          26.8151064071     A'        A'  (1)
   50    35           1.0091179739          27.4594960846     A'        A'  (1)
   51    36           1.0323580627          28.0918910502     A'        A'  (1)
   52    37           1.0488637212          28.5410328521     A'        A'  (1)
   53   120           1.0881441580          29.6099078777     A''       A'' (2)
   54    38           1.1024355854          29.9987973874     A'        A'  (1)
   55   121           1.1633438134          31.6561945329     A''       A'' (2)
   56    39           1.1926446616          32.4535111463     A'        A'  (1)
   57    40           1.2096421710          32.9160368913     A'        A'  (1)
   58   122           1.2805256679          34.8448749040     A''       A'' (2)
   59    41           1.3167541708          35.8307025843     A'        A'  (1)
   60   123           1.3579827007          36.9525879194     A''       A'' (2)
   61    42           1.4962655567          40.7154557313     A'        A'  (1)
   62    43           1.5215237540          41.4027662220     A'        A'  (1)
   63   124           1.5237095871          41.4622457649     A''       A'' (2)
   64    44           1.6235985873          44.1803636461     A'        A'  (1)
   65    45           1.7243555735          46.9221006272     A'        A'  (1)
   66    46           1.8244778061          49.6465650873     A'        A'  (1)
   67   125           2.1449816090          58.3679169491     A''       A'' (2)
   68    47           2.1896358571          59.5830208146     A'        A'  (1)
   69   126           2.2220005179          60.4637080089     A''       A'' (2)
   70    48           2.2591095380          61.4734957806     A'        A'  (1)
   71   127           2.3057824311          62.7435297700     A''       A'' (2)
   72    49           2.3140473983          62.9684309603     A'        A'  (1)
   73    50           2.3150359303          62.9953302853     A'        A'  (1)
   74    51           2.3677826651          64.4306419093     A'        A'  (1)
   75   128           2.3769751741          64.6807827955     A''       A'' (2)
   76    52           2.3950411501          65.1723829954     A'        A'  (1)
   77   129           2.4398900116          66.3927825608     A''       A'' (2)
   78   130           2.4794886919          67.4703174321     A''       A'' (2)
   79    53           2.4921391523          67.8145539607     A'        A'  (1)
   80    54           2.5016759527          68.0740634904     A'        A'  (1)
   81   131           2.5161327341          68.4674525130     A''       A'' (2)
   82    55           2.6070318178          70.9409423314     A'        A'  (1)
   83    56           2.8980008735          78.8586128616     A'        A'  (1)
   84   132           2.9029674248          78.9937595936     A''       A'' (2)
   85    57           2.9679313079          80.7615167254     A'        A'  (1)
   86    58           3.0454988750          82.8722375315     A'        A'  (1)
   87   133           3.0611692404          83.2986498539     A''       A'' (2)
   88    59           3.0853458906          83.9565299520     A'        A'  (1)
   89   134           3.0991500831          84.3321611254     A''       A'' (2)
   90    60           3.1323977463          85.2368760351     A'        A'  (1)
   91    61           3.2078979007          87.2913396846     A'        A'  (1)
   92   135           3.3672425846          91.6273289697     A''       A'' (2)
   93    62           3.3724932469          91.7702067544     A'        A'  (1)
   94    63           3.3955074538          92.3964551635     A'        A'  (1)
   95   136           3.8043074855         103.5204695587     A''       A'' (2)
   96    64           3.8059703548         103.5657185347     A'        A'  (1)
   97    65           3.8353363323         104.3648074074     A'        A'  (1)
   98   137           3.9232168930         106.7561590355     A''       A'' (2)
   99    66           4.0353999455         109.8088150886     A'        A'  (1)
  100   138           4.0646028569         110.6034667090     A''       A'' (2)
  101    67           4.1530123616         113.0092116370     A'        A'  (1)
  102   139           4.1953335121         114.1608286898     A''       A'' (2)
  103    68           4.2990269235         116.9824698617     A'        A'  (1)
  104    69           4.3986661261         119.6937904068     A'        A'  (1)
  105    70           4.7110556897         128.1943425918     A'        A'  (1)
  106    71           5.1270026161         139.5128338799     A'        A'  (1)
  107    72           5.8927938648         160.3510731535     A'        A'  (1)
  108   140           6.5657456612         178.6630224928     A''       A'' (2)
  109    73           6.6112152135         179.9003119148     A'        A'  (1)
  110   141           6.6497343072         180.9484697422     A''       A'' (2)
  111    74           6.6775966835         181.7066435444     A'        A'  (1)
  112   142           6.7700289025         184.2218520960     A''       A'' (2)
  113    75           6.8598446914         186.6658639625     A'        A'  (1)
  114    76           6.9377901260         188.7868670663     A'        A'  (1)
  115   143           7.0535231309         191.9361222357     A''       A'' (2)
  116    77           7.1280950732         193.9653279488     A'        A'  (1)
  117   144           7.1654624597         194.9821462289     A''       A'' (2)
  118    78           7.3944148235         201.2122567810     A'        A'  (1)
  119    79           7.6340661191         207.7335000678     A'        A'  (1)
  120   145          10.3539994160         281.7466478320     A''       A'' (2)
  121    80          10.3590067706         281.8829048777     A'        A'  (1)
  122   146          10.3924491099         282.7929171940     A''       A'' (2)
  123    81          10.4299228266         283.8126288663     A'        A'  (1)
  124    82          10.5948694462         288.3010545738     A'        A'  (1)
  125   147          12.6831801287         345.1268772125     A''       A'' (2)
  126    83          12.7241533341         346.2418148142     A'        A'  (1)
  127    84          13.1865942082         358.8254707401     A'        A'  (1)
  128    85          18.2452641483         496.4788779725     A'        A'  (1)
  129   148          26.0476284802         708.7920052364     A''       A'' (2)
  130    86          26.1571410442         711.7719936008     A'        A'  (1)
  131    87          26.5717796780         723.0548844383     A'        A'  (1)
  132    88          28.7378043573         781.9954124419     A'        A'  (1)
  133   149          36.9013155912        1004.1358465168     A''       A'' (2)
  134    89          36.9025497012        1004.1694283572     A'        A'  (1)
  135   150          36.9030769741        1004.1837761824     A''       A'' (2)
  136    90          36.9041796750        1004.2137821997     A'        A'  (1)
  137   151          36.9105684514        1004.3876296422     A''       A'' (2)
  138    91          36.9106828408        1004.3907423358     A'        A'  (1)
  139    92          36.9154657843        1004.5208928457     A'        A'  (1)
  140   152          43.8582729051        1193.4442792828     A''       A'' (2)
  141    93          43.8713804819        1193.8009545811     A'        A'  (1)
  142   153          43.8951755700        1194.4484518454     A''       A'' (2)
  143    94          43.9170876331        1195.0447093966     A'        A'  (1)
  144    95          44.0454034049        1198.5363590578     A'        A'  (1)
  145   154          46.4882026309        1265.0083053669     A''       A'' (2)
  146    96          46.4909921763        1265.0842127562     A'        A'  (1)
  147   155          46.5130335547        1265.6839891536     A''       A'' (2)
  148    97          46.5329127218        1266.2249287911     A'        A'  (1)
  149    98          46.6169876584        1268.5127241271     A'        A'  (1)
  150   156          55.0221408785        1497.2285709326     A''       A'' (2)
  151    99          55.0683013318        1498.4846607276     A'        A'  (1)
  152   100          55.6106347682        1513.2423037944     A'        A'  (1)
  153   101         103.7833071798        2824.0873621902     A'        A'  (1)
  154   157         138.2091495198        3760.8621569710     A''       A'' (2)
  155   102         138.2885399202        3763.0224795939     A'        A'  (1)
  156   103         138.5810362924        3770.9817105218     A'        A'  (1)
  157   104         149.4383830953        4066.4251370824     A'        A'  (1)


  VSCF finished.

 @CHECKOUT-I, Total execution time (CPU/WALL):       70.90/      14.49 seconds.
--executable xvscf finished with status     0 in       14.52 seconds (walltime).
 --invoking executable--
/home/asmola/.local/bin/xvtran
 @GETMEM-I,  Allocated    3814 MB of main memory.
  Full RHF integral transformation
  Transformation of IIII integrals :
  1 pass through the AO integral file was required.
    14083096 AO integrals were read.
    15933126 MO integrals were written to HF2.
  Transformation of IIJJ integrals :
  1 pass through the AO integral file was required.
     6856057 AO integrals were read.
     7813260 MO integrals were written to HF2.
  Transformation of IJIJ integrals :
  1 pass through the AO integral file was required.
    13239836 AO integrals were read.
    15193828 MO integrals were written to HF2.
  Summary of active molecular orbitals: 
------------------------------------------------------------------------
 
  Index      Eigenvalue    Symmetry    Index      Eigenvalue    Symmetry
------------------------------------------------------------------------
     1      -104.8839874        1        80         7.1280951        1
     2       -20.6704278        1        81         7.3944148        1
     3       -10.6036737        1        82         7.6340661        1
     4        -8.0702993        1        83        10.3590068        1
     5        -8.0682052        1        84        10.4299228        1
     6        -1.3500287        1        85        10.5948694        1
     7        -1.0263489        1        86        12.7241533        1
     8        -0.5950290        1        87        13.1865942        1
     9        -0.5701350        1        88        18.2452641        1
    10        -0.4205295        1        89        26.1571410        1
    11        -8.0679849        2        90        26.5717797        1
    12        -0.6022051        2        91        28.7378044        1
    13        -0.4339512        2        92        36.9025497        1
    14        -0.0418530        1        93        36.9041797        1
    15         0.0528867        1        94        36.9106828        1
    16         0.0812246        1        95        36.9154658        1
    17         0.1181482        1        96        43.8713805        1
    18         0.1482714        1        97        43.9170876        1
    19         0.1638502        1        98        44.0454034        1
    20         0.1763969        1        99        46.4909922        1
    21         0.2228547        1       100        46.5329127        1
    22         0.2767758        1       101        46.6169877        1
    23         0.3075663        1       102        55.0683013        1
    24         0.3389427        1       103        55.6106348        1
    25         0.3862983        1       104       103.7833072        1
    26         0.4582354        1       105       138.2885399        1
    27         0.5091178        1       106       138.5810363        1
    28         0.5896893        1       107       149.4383831        1
    29         0.6412320        1       108         0.1178427        2
    30         0.6689429        1       109         0.1912544        2
    31         0.7512258        1       110         0.2449196        2
    32         0.7658051        1       111         0.3706875        2
    33         0.7952097        1       112         0.4257904        2
    34         0.8247885        1       113         0.6185518        2
    35         0.9030266        1       114         0.7396053        2
    36         0.9595101        1       115         0.7773550        2
    37         0.9854371        1       116         0.8216456        2
    38         1.0091180        1       117         0.8851152        2
    39         1.0323581        1       118         0.9391262        2
    40         1.0488637        1       119         0.9645351        2
    41         1.1024356        1       120         1.0881442        2
    42         1.1926447        1       121         1.1633438        2
    43         1.2096422        1       122         1.2805257        2
    44         1.3167542        1       123         1.3579827        2
    45         1.4962656        1       124         1.5237096        2
    46         1.5215238        1       125         2.1449816        2
    47         1.6235986        1       126         2.2220005        2
    48         1.7243556        1       127         2.3057824        2
    49         1.8244778        1       128         2.3769752        2
    50         2.1896359        1       129         2.4398900        2
    51         2.2591095        1       130         2.4794887        2
    52         2.3140474        1       131         2.5161327        2
    53         2.3150359        1       132         2.9029674        2
    54         2.3677827        1       133         3.0611692        2
    55         2.3950412        1       134         3.0991501        2
    56         2.4921392        1       135         3.3672426        2
    57         2.5016760        1       136         3.8043075        2
    58         2.6070318        1       137         3.9232169        2
    59         2.8980009        1       138         4.0646029        2
    60         2.9679313        1       139         4.1953335        2
    61         3.0454989        1       140         6.5657457        2
    62         3.0853459        1       141         6.6497343        2
    63         3.1323977        1       142         6.7700289        2
    64         3.2078979        1       143         7.0535231        2
    65         3.3724932        1       144         7.1654625        2
    66         3.3955075        1       145        10.3539994        2
    67         3.8059704        1       146        10.3924491        2
    68         3.8353363        1       147        12.6831801        2
    69         4.0353999        1       148        26.0476285        2
    70         4.1530124        1       149        36.9013156        2
    71         4.2990269        1       150        36.9030770        2
    72         4.3986661        1       151        36.9105685        2
    73         4.7110557        1       152        43.8582729        2
    74         5.1270026        1       153        43.8951756        2
    75         5.8927939        1       154        46.4882026        2
    76         6.6112152        1       155        46.5130336        2
    77         6.6775967        1       156        55.0221409        2
    78         6.8598447        1       157       138.2091495        2
    79         6.9377901        1
------------------------------------------------------------------------
  -104.883987369394       -20.6704277867920       -10.6036736936744     
  -8.07029927061864       -8.06820517043804       -1.35002872571565     
  -1.02634893298525      -0.595028960945836      -0.570134981708613     
 -0.420529515830997       -8.06798486878931      -0.602205092979950     
 -0.433951185900259      -4.185302118626590E-002  5.288672474768422E-002
  8.122464825811077E-002  0.118148206129229       0.148271436514581     
  0.163850224213037       0.176396923275121       0.222854686423003     
  0.276775810262146       0.307566312328213       0.338942739724789     
  0.386298286568326       0.458235383808989       0.509117786606041     
  0.589689343164593       0.641231973617341       0.668942872612797     
  0.751225823913826       0.765805106940837       0.795209717495072     
  0.824788515236318       0.903026583089969       0.959510075320776     
  0.985437087592464        1.00911797393439        1.03235806269883     
   1.04886372120695        1.10243558537163        1.19264466158449     
   1.20964217097725        1.31675417076737        1.49626555668842     
   1.52152375398931        1.62359858727740        1.72435557345371     
   1.82447780612588        2.18963585712397        2.25910953797955     
   2.31404739827782        2.31503593034087        2.36778266514988     
   2.39504115014784        2.49213915234710        2.50167595266141     
   2.60703181784400        2.89800087347263        2.96793130794774     
   3.04549887498667        3.08534589064503        3.13239774627320     
   3.20789790072244        3.37249324686799        3.39550745382051     
   3.80597035484357        3.83533633234618        4.03539994547429     
   4.15301236162104        4.29902692347702        4.39866612613394     
   4.71105568972167        5.12700261611446        5.89279386484653     
   6.61121521351089        6.67759668346789        6.85984469141220     
   6.93779012596071        7.12809507321298        7.39441482350491     
   7.63406611910139        10.3590067705878        10.4299228265726     
   10.5948694462102        12.7241533340843        13.1865942082194     
   18.2452641482574        26.1571410441699        26.5717796779969     
   28.7378043573453        36.9025497012100        36.9041796750301     
   36.9106828407647        36.9154657842814        43.8713804819304     
   43.9170876331336        44.0454034048772        46.4909921763175     
   46.5329127217800        46.6169876584475        55.0683013318475     
   55.6106347681844        103.783307179826        138.288539920168     
   138.581036292398        149.438383095306       0.117842711862991     
  0.191254449670848       0.244919560514929       0.370687517846052     
  0.425790416625071       0.618551786573986       0.739605276121679     
  0.777355009658139       0.821645578446368       0.885115241550786     
  0.939126231507003       0.964535061744363        1.08814415799764     
   1.16334381341789        1.28052566794550        1.35798270070228     
   1.52370958710213        2.14498160902250        2.22200051794711     
   2.30578243111284        2.37697517412774        2.43989001164767     
   2.47948869192993        2.51613273410458        2.90296742478843     
   3.06116924044028        3.09915008310245        3.36724258457743     
   3.80430748547435        3.92321689295367        4.06460285694287     
   4.19533351214305        6.56574566116205        6.64973430723111     
   6.77002890253653        7.05352313090004        7.16546245969029     
   10.3539994159944        10.3924491098819        12.6831801286699     
   26.0476284802350        36.9013155912096        36.9030769741154     
   36.9105684513696        43.8582729051113        43.8951755699919     
   46.4882026309218        46.5130335546842        55.0221408784601     
   138.209149519794     
 @CHECKOUT-I, Total execution time (CPU/WALL):       34.45/      19.29 seconds.
--executable xvtran finished with status     0 in       19.36 seconds (walltime).
 --invoking executable--
/home/asmola/.local/bin/xintprc
 @GETMEM-I,  Allocated    3814 MB of main memory.
  Processing integrals for CCSD calculation.
  @GMOIAA-I, Processing MO integrals for spin case AA.
  @GMOIAA-I, Generation of integral list completed.
                      TYPE                NUMBER
                      ----               --------
                      PPPP              27524020
                      PPPH               9932000
                      PPHH                900748
                      PHPH                491140
                      PHHH                 89950
                      HHHH                  2356

                     TOTAL              38940214

  @FORMT2-I, Second-order MP correlation energies:
            ------------------------------------------------
            E(SCF)                  =   -534.748126946437 a.u.
            E2(AA)                  =     -0.111704162455 a.u.
            E2(AB)                  =     -0.663657544455 a.u.
            E2(TOT)                 =     -0.887065869364 a.u.
            Total MP2 energy        =   -535.635192815801 a.u.
            ------------------------------------------------
   Largest T2 amplitudes for spin case AB:
       _       _                 _       _                 _       _
   i   j   a   b             i   j   a   b             i   j   a   b
-----------------------------------------------------------------------------
[ 10  10  14  14]-0.07991 [  9   9  14  14]-0.05928 [ 10   9  14  14]-0.05588
[  9  10  14  14]-0.05588 [  8   8  19  19]-0.03975 [  9   8  14  19]-0.02859
[  8   9  19  14]-0.02859 [  8   8  19  16] 0.02600 [  8   8  16  19] 0.02600
[ 10  10  15  14] 0.02483 [ 10  10  14  15] 0.02483 [ 10   8  14  14] 0.02343
[  8  10  14  14] 0.02343 [  9   8  14  16] 0.02175 [  8   9  16  14] 0.02175
-----------------------------------------------------------------------------
   Norm of T2AB vector (  1799624 symmetry allowed elements):  0.3834423874.
-----------------------------------------------------------------------------
 @CHECKOUT-I, Total execution time (CPU/WALL):        6.35/       7.70 seconds.
--executable xintprc finished with status     0 in        7.95 seconds (walltime).
  calling xvcc 
 --invoking executable--
/home/asmola/.local/bin/xvcc
 @GETMEM-I,  Allocated    3814 MB of main memory.
   CCSD energy will be calculated.
   The total correlation energy is -0.887065869364 a.u.
   The total correlation energy is -0.871129603558 a.u.
  Convergence information after     1 iterations: 
  Largest element of residual vector :  0.26200546E-01.
  Largest element of DIIS residual   :  0.26200546E-01.
   The total correlation energy is -0.897830965487 a.u.
  Convergence information after     2 iterations: 
  Largest element of residual vector : -0.24956990E-01.
  Largest element of DIIS residual   : -0.21469692E-01.
   The total correlation energy is -0.895864274882 a.u.
  Convergence information after     3 iterations: 
  Largest element of residual vector :  0.10192106E-01.
  Largest element of DIIS residual   :  0.11089785E-01.
   The total correlation energy is -0.899850248752 a.u.
  Convergence information after     4 iterations: 
  Largest element of residual vector : -0.49955007E-02.
  Largest element of DIIS residual   : -0.23558356E-02.
   The total correlation energy is -0.900831150076 a.u.
  Convergence information after     5 iterations: 
  Largest element of residual vector :  0.31664455E-02.
  Largest element of DIIS residual   :  0.13939796E-02.
   The total correlation energy is -0.900912822566 a.u.
  Convergence information after     6 iterations: 
  Largest element of residual vector :  0.77422498E-03.
  Largest element of DIIS residual   :  0.52464075E-03.
   The total correlation energy is -0.900919871992 a.u.
  Convergence information after     7 iterations: 
  Largest element of residual vector :  0.59060417E-03.
  Largest element of DIIS residual   :  0.30531845E-03.
   The total correlation energy is -0.900937916486 a.u.
  Convergence information after     8 iterations: 
  Largest element of residual vector :  0.23729883E-03.
  Largest element of DIIS residual   :  0.10176982E-03.
   The total correlation energy is -0.900925567996 a.u.
  Convergence information after     9 iterations: 
  Largest element of residual vector :  0.86356191E-04.
  Largest element of DIIS residual   :  0.45902050E-04.
   The total correlation energy is -0.900935835168 a.u.
  Convergence information after    10 iterations: 
  Largest element of residual vector : -0.38123291E-04.
  Largest element of DIIS residual   : -0.35285218E-04.
   The total correlation energy is -0.900936364933 a.u.
  Convergence information after    11 iterations: 
  Largest element of residual vector :  0.31881816E-04.
  Largest element of DIIS residual   :  0.21680766E-04.
   The total correlation energy is -0.900937657890 a.u.
  Convergence information after    12 iterations: 
  Largest element of residual vector : -0.99655814E-05.
  Largest element of DIIS residual   : -0.71563838E-05.
   The total correlation energy is -0.900938709504 a.u.
  Convergence information after    13 iterations: 
  Largest element of residual vector :  0.10420536E-04.
  Largest element of DIIS residual   : -0.32957451E-05.
   The total correlation energy is -0.900939022966 a.u.
  Convergence information after    14 iterations: 
  Largest element of residual vector :  0.23262188E-05.
  Largest element of DIIS residual   :  0.17702194E-05.
   The total correlation energy is -0.900939036789 a.u.
  Convergence information after    15 iterations: 
  Largest element of residual vector :  0.15071550E-05.
  Largest element of DIIS residual   :  0.10331587E-05.
   The total correlation energy is -0.900939129905 a.u.
  Convergence information after    16 iterations: 
  Largest element of residual vector :  0.69417611E-06.
  Largest element of DIIS residual   :  0.37561876E-06.
   The total correlation energy is -0.900939052655 a.u.
  Convergence information after    17 iterations: 
  Largest element of residual vector :  0.36515196E-06.
  Largest element of DIIS residual   :  0.27230356E-06.
   The total correlation energy is -0.900939048066 a.u.
  Convergence information after    18 iterations: 
  Largest element of residual vector :  0.13596068E-06.
  Largest element of DIIS residual   : -0.12442684E-06.
   The total correlation energy is -0.900939028870 a.u.
  Convergence information after    19 iterations: 
  Largest element of residual vector :  0.89651633E-07.
  Largest element of DIIS residual   :  0.46247693E-07.
   The total correlation energy is -0.900939025026 a.u.
  Convergence information after    20 iterations: 
  Largest element of residual vector :  0.40208564E-07.
  Largest element of DIIS residual   :  0.29132970E-07.
   The total correlation energy is -0.900939023771 a.u.
  Convergence information after    21 iterations: 
  Largest element of residual vector :  0.30919711E-07.
  Largest element of DIIS residual   : -0.20196202E-07.
   The total correlation energy is -0.900939024246 a.u.
  Convergence information after    22 iterations: 
  Largest element of residual vector :  0.14967851E-07.
  Largest element of DIIS residual   : -0.92581327E-08.
   The total correlation energy is -0.900939024685 a.u.
  Convergence information after    23 iterations: 
  Largest element of residual vector :  0.12360310E-07.
  Largest element of DIIS residual   :  0.32303275E-08.
   The total correlation energy is -0.900939025264 a.u.
  Convergence information after    24 iterations: 
  Largest element of residual vector :  0.66653973E-08.
  Largest element of DIIS residual   :  0.18291996E-08.
   The total correlation energy is -0.900939025379 a.u.
  Convergence information after    25 iterations: 
  Largest element of residual vector :  0.23039129E-08.
  Largest element of DIIS residual   :  0.10496122E-08.
[...]
 final tnorm  0.765075983980106     
  norm contr. I: |<0|L dT/dx|0>|^2   0.000000000000000E+000
  norm contr. II: <0|[nabla(1+L)e-T][nabla e^T]|0>  0.450164791457925     
  total norm contribution  0.450164791457925     
 oo  2.070039135503559E-003
 vv  -1.42785281046952     
 vo -3.153253388022728E-002
  Correlated perturbed 1-el contribution to DBOC  -1.45731530521424       cm**-1
  SUM_I |dc_I/dx|^2 contribution to DBOC  0.733287058490694       cm**-1
 
 
  The total diagonal Born-Oppenheimer correction (DBOC) is:      0.0084376895 a.u.
  The total diagonal Born-Oppenheimer correction (DBOC) is:       1851.858791 cm-1
 
 Total CC energy including DBOC  -535.640628282410     
 First-order density matrix is being calculated  (Symmetry block 2, perturbation   3)
 Calculation of the contributions of <pq||rs> to dI(i,j)/dx required   3.9 seconds.
 Calculation of the contributions of <pq||rs> to dI(a,b)/dx required  10.7 seconds.
 Calculation of the contributions of <pq||rs> to dI(i,a)/dx required   6.5 seconds.
 First-order Z-vector equations are solved for 1 perturbation.
 Convergence reached after  23 iterations.
        U*G(pq,rs) contribution is being calculated
             (Symmetry block 2, perturbation   3)

 CCSD contribution to force constants 

        0.0000000000        0.0000000000        0.0000000000
        0.0000000000        0.0000000000        0.0000000000
        0.0000000000        0.0000000000        0.0000000000
        0.0000000000        0.0000000000        0.0000000000
        0.0000000000        0.0000000000        0.0000000000
        0.0000000000        0.0000000000        0.0000000000
        0.0000000000        0.0000000000        0.0000000000
        0.0000000000        0.0000000000        0.0000000000
        0.0000000000        0.0000000000        0.0000000000
        0.0000000000        0.0000000000        0.0000000000
        0.0000000000        0.0000000000        0.0000000000
        0.0000000000        0.0000000000        0.0000000000
        0.0000000000        0.0000000000        0.0000000000
        0.0000000000        0.0000000000        0.0000000000
        0.0000000000        0.0000000000        0.0000000000
        0.0000000000        0.0000000000        0.0000000000
        0.0000000000        0.0000000000        0.0000000000
        0.0000000000        0.0000000000        0.0000000000
        0.0000000000        0.0000000000        0.0000000000
        0.0000000000        0.0000000000        0.0000000000
        0.0000000000        0.0000000000        0.0000000000
        0.0000000000        0.0000000000        0.0000000000
        0.0000000000        0.0000000000        0.0000000000
        0.0000000000        0.0000000000        0.0000000000
        0.0000000000        0.0000000000        0.0000000000
        0.0000000000        0.0000000000        0.0000000000
        0.0783263028        0.0085318389       -0.0868581418

 CCSD contribution to dipole derivatives 

        0.0000000000        0.0000000000        0.0000000000
        0.0000000000        0.0000000000        0.0000000000
        0.0000000000        0.0000000000        0.0000000000
        0.0000000000        0.0000000000        0.0000000000
        0.0000000000        0.0000000000        0.0000000000
        0.0000000000        0.0000000000        0.0000000000
        0.0000000000        0.0000000000        0.0000000000
        0.0000000000        0.0000000000        0.0000000000
        0.0000000000        0.0000000000        0.0231356826
 @CHECKOUT-I, Total execution time (CPU/WALL):     1073.51/     276.72 seconds.
--executable xsdcc finished with status     0 in      276.89 seconds (walltime).
 --invoking executable--
/home/asmola/.local/bin/xanti
 @GETMEM-I,  Allocated    3814 MB of main memory.
 CCSD MO derivative gammas will be sorted to Mulliken order.
 @CHECKOUT-I, Total execution time (CPU/WALL):        6.19/       4.86 seconds.
--executable xanti finished with status     0 in        5.03 seconds (walltime).
 --invoking executable--
/home/asmola/.local/bin/xbcktrn
 @GETMEM-I,  Allocated    3814 MB of main memory.
 CCSD MO derivative gammas will be transformed to the AO basis.
 @CHECKOUT-I, Total execution time (CPU/WALL):       12.10/       2.68 seconds.
--executable xbcktrn finished with status     0 in        2.83 seconds (walltime).
 --invoking executable--
/home/asmola/.local/bin/xvdint
 @GETMEM-I,  Allocated    3814 MB of main memory.
 One- and two-electron integral derivatives are calculated
 for RHF-CC/MBPT hessians and dipole derivatives.
 Spherical gaussians are used.
  magnet F F
 Evaluation of 2el integral derivatives

                      Two-electron integral gradient
                      ------------------------------

                         O #1 x     0.0000000000
                         O #1 y     0.0000000000
                         H #2 x     0.0000000000
                         H #2 y     0.0000000000
                         CL#3 x     0.0000000000
                         CL#3 y     0.0000000000


 O #1       0.0000000000            0.0000000000           -0.0856535305
 H #2       0.0000000000            0.0000000000           -0.0002256867
 CL#3       0.0000000000            0.0000000000            0.0858792172


 Evaluation of 2e integral derivatives required  106.72 seconds.
  contribution to Hessian
        0.0000000000        0.0000000000        0.0000000000
        0.0000000000        0.0000000000        0.0000000000
       -0.0856535305       -0.0002256867        0.0858792172
 @CHECKOUT-I, Total execution time (CPU/WALL):      106.92/      19.76 seconds.
--executable xvdint finished with status     0 in       19.86 seconds (walltime).
 --invoking executable--
/home/asmola/.local/bin/xanti
 @GETMEM-I,  Allocated    3814 MB of main memory.
 CCSD MO gammas will be sorted to Mulliken order.
 @CHECKOUT-I, Total execution time (CPU/WALL):        9.23/      26.83 seconds.
--executable xanti finished with status     0 in       26.93 seconds (walltime).
 --invoking executable--
/home/asmola/.local/bin/xbcktrn
 @GETMEM-I,  Allocated    3814 MB of main memory.
 CCSD MO gammas will be transformed to the AO basis.
 @CHECKOUT-I, Total execution time (CPU/WALL):       16.55/       2.32 seconds.
--executable xbcktrn finished with status     0 in        2.40 seconds (walltime).
 --invoking executable--
/home/asmola/.local/bin/xvdint
 @GETMEM-I,  Allocated    3814 MB of main memory.
 One- and two-electron integral derivatives are calculated
 for RHF-CC/MBPT hessians and dipole derivatives.
 Spherical gaussians are used.
  magnet F F

                     Kinetic energy integral gradient
                     --------------------------------

                         O #1 x     0.3175113198
                         O #1 y    -0.1010409380
                         H #2 x     0.0381913775
                         H #2 y     0.0838936642
                         CL#3 x    -0.3557026973
                         CL#3 y     0.0171472738


 O #1       0.3175113198           -0.1010409380            0.0000000000
 H #2       0.0381913775            0.0838936642            0.0000000000
 CL#3      -0.3557026973            0.0171472738            0.0000000000



                   Nuclear attraction integral gradient
                   ------------------------------------

                         O #1 x   -25.6379731222
                         O #1 y     4.4275358781
                         H #2 x    -1.8539658174
                         H #2 y    -2.9164388126
                         CL#3 x    27.4919389396
                         CL#3 y    -1.5110970655


 O #1     -25.6379731222            4.4275358781            0.0000000000
 H #2      -1.8539658174           -2.9164388126            0.0000000000
 CL#3      27.4919389396           -1.5110970655            0.0000000000



                      Reorthonormalization gradient
                      -----------------------------

                         O #1 x     0.0000000000
                         O #1 y     0.0000000000
                         H #2 x     0.0000000000
                         H #2 y     0.0000000000
                         CL#3 x     0.0000000000
                         CL#3 y     0.0000000000


 O #1       0.0000000000            0.0000000000            0.0000000000
 H #2       0.0000000000            0.0000000000            0.0000000000
 CL#3       0.0000000000            0.0000000000            0.0000000000



                     Kinetic energy integral Hessian
                     -------------------------------


           Symmetry 1

           O #1 x      O #1 y      H #2 x      H #2 y      CL#3 x      CL#3 y

 O #1 x    0.379755
 O #1 y    0.015632   -0.155723
 H #2 x    0.010729   -0.056069   -0.016183
 H #2 y   -0.056069   -0.073766    0.054553    0.075443
 CL#3 x   -0.390485    0.040437    0.005453    0.001516    0.385032
 CL#3 y    0.040437    0.229489    0.001516   -0.001677   -0.041952   -0.227812


           Symmetry 2

           O #1 z      H #2 z      CL#3 z

 O #1 z   -0.259786
 H #2 z    0.041823   -0.040761
 CL#3 z    0.217963   -0.001062   -0.216901




           O #1 x      O #1 y      O #1 z      H #2 x      H #2 y      H #2 z

 O #1 x    0.379755
 O #1 y    0.015632   -0.155723
 O #1 z    0.000000    0.000000   -0.259786

 H #2 x    0.010729   -0.056069    0.000000   -0.016183
 H #2 y   -0.056069   -0.073766    0.000000    0.054553    0.075443
 H #2 z    0.000000    0.000000    0.041823    0.000000    0.000000   -0.040761

 CL#3 x   -0.390485    0.040437    0.000000    0.005453    0.001516    0.000000
 CL#3 y    0.040437    0.229489    0.000000    0.001516   -0.001677    0.000000
 CL#3 z    0.000000    0.000000    0.217963    0.000000    0.000000   -0.001062


           CL#3 x      CL#3 y      CL#3 z

 CL#3 x    0.385032
 CL#3 y   -0.041952   -0.227812
 CL#3 z    0.000000    0.000000   -0.216901




                   Nuclear attraction integral Hessian
                   -----------------------------------


           Symmetry 1

           O #1 x      O #1 y      H #2 x      H #2 y      CL#3 x      CL#3 y

 O #1 x  -13.769051
 O #1 y    1.226853    9.691810
 H #2 x   -0.638728    0.941861    0.532349
 H #2 y    0.927388    0.778394   -1.277753   -0.979167
 CL#3 x   14.407779   -2.168714    0.106379    0.350364  -14.514158
 CL#3 y   -2.154241  -10.470204    0.335892    0.200772    1.818350   10.269432


           Symmetry 2

           O #1 z      H #2 z      CL#3 z

 O #1 z   11.008596
 H #2 z   -1.147712    1.297373
 CL#3 z   -9.860885   -0.149661   10.010546




           O #1 x      O #1 y      O #1 z      H #2 x      H #2 y      H #2 z

 O #1 x  -13.769051
 O #1 y    1.226853    9.691810
 O #1 z    0.000000    0.000000   11.008596

 H #2 x   -0.638728    0.941861    0.000000    0.532349
 H #2 y    0.927388    0.778394    0.000000   -1.277753   -0.979167
 H #2 z    0.000000    0.000000   -1.147712    0.000000    0.000000    1.297373

 CL#3 x   14.407779   -2.168714    0.000000    0.106379    0.350364    0.000000
 CL#3 y   -2.154241  -10.470204    0.000000    0.335892    0.200772    0.000000
 CL#3 z    0.000000    0.000000   -9.860885    0.000000    0.000000   -0.149661


           CL#3 x      CL#3 y      CL#3 z

 CL#3 x  -14.514158
 CL#3 y    1.818350   10.269432
 CL#3 z    0.000000    0.000000   10.010546




                Highest order reorthonormalization Hessian
                ------------------------------------------


           Symmetry 1

           O #1 x      O #1 y      H #2 x      H #2 y      CL#3 x      CL#3 y

 O #1 x    0.000000
 O #1 y    0.000000    0.000000
 H #2 x    0.000000    0.000000    0.000000
 H #2 y    0.000000    0.000000    0.000000    0.000000
 CL#3 x    0.000000    0.000000    0.000000    0.000000    0.000000
 CL#3 y    0.000000    0.000000    0.000000    0.000000    0.000000    0.000000


           Symmetry 2

           O #1 z      H #2 z      CL#3 z

 O #1 z    0.000000
 H #2 z    0.000000    0.000000
 CL#3 z    0.000000    0.000000    0.000000




           O #1 x      O #1 y      O #1 z      H #2 x      H #2 y      H #2 z


           CL#3 x      CL#3 y      CL#3 z




                Electronic contributions to dipole moment
                -----------------------------------------

                               au             Debye

                    x      3.08866142      7.85059563
                    y      0.79528464      2.02141229

  Conversion factor used: 1 a.u. =   2.54174691 Debye 



   Electronic contributions to static part of dipole moment derivatives
   --------------------------------------------------------------------


                     Total dipole moment derivatives
                     -------------------------------


           Symmetry 1
                              Ex             Ey

               O #1 x    -8.64536713    -0.08084656
               O #1 y    -0.30530482    -8.69604199
               H #2 x    -0.61018529     0.05310825
               H #2 y     0.33747495    -0.51603857
               CL#3 x   -16.74444758     0.02773831
               CL#3 y    -0.03217013   -16.78791944

           Symmetry 2
                              Ez

               O #1 z    -8.37682650
               H #2 z    -0.78663197
               CL#3 z   -16.83654153



                       Ex          Ey          Ez

      O #1    x   -8.645367   -0.080847    0.000000
      O #1    y   -0.305305   -8.696042    0.000000
      O #1    z    0.000000    0.000000   -8.376826

      H #2    x   -0.610185    0.053108    0.000000
      H #2    y    0.337475   -0.516039    0.000000
      H #2    z    0.000000    0.000000   -0.786632

      CL#3    x  -16.744448    0.027738    0.000000
      CL#3    y   -0.032170  -16.787919    0.000000
      CL#3    z    0.000000    0.000000  -16.836542

 Evaluation of 1e integral derivatives required    1.63 seconds.
 Evaluation of 2el integral derivatives

                      Two-electron integral gradient
                      ------------------------------

                         O #1 x    12.0831404401
                         O #1 y    -2.3249920449
                         H #2 x     0.9545512029
                         H #2 y     1.6759424447
                         CL#3 x   -13.0376916430
                         CL#3 y     0.6490496002


 O #1      12.0831404401           -2.3249920449            0.0000000000
 H #2       0.9545512029            1.6759424447            0.0000000000
 CL#3     -13.0376916430            0.6490496002            0.0000000000


 Evaluation of 2e integral derivatives required  294.29 seconds.

                            Molecular gradient
                            ------------------

                         O #1 x    -0.1171089108
                         O #1 y     0.1516498771
                         H #2 x    -0.0591158266
                         H #2 y    -0.1441477131
                         CL#3 x     0.1762247374
                         CL#3 y    -0.0075021640


 O #1      -0.1171089108            0.1516498771            0.0000000000
 H #2      -0.0591158266           -0.1441477131            0.0000000000
 CL#3       0.1762247374           -0.0075021640            0.0000000000


  Molecular gradient norm 0.303E+00

                            Molecular hessian
                            -----------------


           Symmetry 1

           O #1 x      O #1 y      H #2 x      H #2 y      CL#3 x      CL#3 y

 O #1 x    2.017822
 O #1 y    0.382537    1.521117
 H #2 x   -0.352836   -1.038010    0.277965
 H #2 y   -0.928213   -2.573497    0.919518    2.466739
 CL#3 x   -1.664986    1.081086   -0.027994   -0.086405    1.692980
 CL#3 y    0.545676    1.052380   -0.006075   -0.009601   -0.539601   -1.042779


           Symmetry 2

           O #1 z      H #2 z      CL#3 z

 O #1 z    0.183960
 H #2 z   -0.073997    0.039589
 CL#3 z   -0.109963    0.009643    0.100320




           O #1 x      O #1 y      O #1 z      H #2 x      H #2 y      H #2 z

 O #1 x    2.017822
 O #1 y    0.382537    1.521117
 O #1 z    0.000000    0.000000    0.183960

 H #2 x   -0.352836   -1.038010    0.000000    0.277965
 H #2 y   -0.928213   -2.573497    0.000000    0.919518    2.466739
 H #2 z    0.000000    0.000000   -0.073997    0.000000    0.000000    0.039589

 CL#3 x   -1.664986    1.081086    0.000000   -0.027994   -0.086405    0.000000
 CL#3 y    0.545676    1.052380    0.000000   -0.006075   -0.009601    0.000000
 CL#3 z    0.000000    0.000000   -0.109963    0.000000    0.000000    0.009643


           CL#3 x      CL#3 y      CL#3 z

 CL#3 x    1.692980
 CL#3 y   -0.539601   -1.042779
 CL#3 z    0.000000    0.000000    0.100320




                           Total dipole moment
                           -------------------

                               au             Debye

                    x     -0.11098981     -0.28210802
                    y     -0.55806865     -1.41846926

  Conversion factor used: 1 a.u. =   2.54174691 Debye 



                     Total dipole moment derivatives
                     -------------------------------


           Symmetry 1
                              Ex             Ey

               O #1 x     0.22427119     0.29425650
               O #1 y     0.22882627     0.10646842
               H #2 x     0.00233194    -0.18241836
               H #2 y    -0.30663861    -0.18655231
               CL#3 x    -0.22660342    -0.11183845
               CL#3 y     0.07781282     0.08008422

           Symmetry 2
                              Ez

               O #1 z    -0.21313105
               H #2 z     0.17839025
               CL#3 z     0.03474068



                       Ex          Ey          Ez

      O #1    x    0.224271    0.294256    0.000000
      O #1    y    0.228826    0.106468    0.000000
      O #1    z    0.000000    0.000000   -0.213131

      H #2    x    0.002332   -0.182418    0.000000
      H #2    y   -0.306639   -0.186552    0.000000
      H #2    z    0.000000    0.000000    0.178390

      CL#3    x   -0.226603   -0.111838    0.000000
      CL#3    y    0.077813    0.080084    0.000000
      CL#3    z    0.000000    0.000000    0.034741

  Molecular gradient does not satisfy rotational invariance condition.
   rotational invariance in yz-plane :        0.0000E+00
   rotational invariance in xz-plane :        0.0000E+00
   rotational invariance in xy-plane :        -.2237E-01
 @CHECKOUT-I, Total execution time (CPU/WALL):      296.09/      43.24 seconds.
--executable xvdint finished with status     0 in       43.34 seconds (walltime).
 --invoking executable--
/home/asmola/.local/bin/xjoda
  @GTFLGS-I, Hessian will be transformed to curvilinear coordinates.
  @GTFLGS-I, Hessian will be transformed to curvilinear coordinates.
  igrd and ihes are                      0                     1
  gradient from JOBARC 
  -0.117108910806979   0.151649877130639   0.000000000000000
  -0.059115826627725  -0.144147713097275   0.000000000000000
   0.176224737434714  -0.007502164033355   0.000000000000000
 
  @PROJFCM-I, Projecting force constant matrix onto totally symmetric subspace.
  Largest difference between matrix elements of symmetrized
  and unsymmetrized FCM :     0.0000000000E+00.
  read isotopes from ZMAT file 
 
  Summary of diagonal Born-Oppenheimer correction at the correlated level
  The total diagonal Born-Oppenheimer correction (DBOC) is:      0.0084376895 a.u.
  The total diagonal Born-Oppenheimer correction (DBOC) is:       1851.858791 cm-1
  The total diagonal Born-Oppenheimer correction (DBOC) is:            22.153 kJ/mole
  hellooooooo 
  readis is  F
 
 @CHECKOUT-I, Total execution time (CPU/WALL):        0.03/       0.10 seconds.
--executable xjoda finished with status     0 in        0.32 seconds (walltime).
  The final electronic energy is      -535.640628282409693 a.u. 
  This computation required                         2909.29 seconds (walltime).
