 --invoking executable--
/home/asmola/.local/bin/xjoda


   *************************************************************************
         <<<     CCCCCC     CCCCCC   |||     CCCCCC     CCCCCC   >>>
       <<<      CCC        CCC       |||    CCC        CCC         >>>
      <<<      CCC        CCC        |||   CCC        CCC            >>>
    <<<        CCC        CCC        |||   CCC        CCC              >>>
      <<<      CCC        CCC        |||   CCC        CCC            >>>
       <<<      CCC        CCC       |||    CCC        CCC         >>>
         <<<     CCCCCC     CCCCCC   |||     CCCCCC     CCCCCC   >>>
   *************************************************************************

     ****************************************************************
     * CFOUR Coupled-Cluster techniques for Computational Chemistry *
     ****************************************************************
 

   Department of Chemistry                Institut fuer Physikalische Chemie
   University of Florida                  Universitaet Mainz
   Gainesville, FL 32611, USA             D-55099 Mainz, Germany

   Department of Chemistry                Fakultaet fuer Chemie und Biowiss.
   Johns Hopkins University               Karlsruher Institut fuer Technologie
   Baltimore, MD 21218, USA               D-76131 Karlsruhe, Germany

   Department of Chemistry                Department of Physical Chemistry
   Southern Methodist University          Eotvos Lorand University
   Dallas, TX 75275, USA                  H-1053 Budapest, Hungary

 
                       Version 2.1
 
                     vincent.theory.phys.ucl.ac.uk                     
                     Thu 30 Jan 12:37:47 GMT 2025                      
                     integer*8 version is running
 
********************************************************************************
*                          Input from ZMAT file                                *
********************************************************************************
Hypochlorous acid DBOC calculation                                              
O                                                                               
H 1 ROH                                                                         
CL 1 ROCL 2 A                                                                   
                                                                                
ROH=1.4000000000000006                                                          
ROCL=1.683                                                                      
A=107.0                                                                         
                                                                                
                                                                                
*CFOUR(CALC=CCSD,BASIS=AUG-PCVTZ,SCF_CONV=10                                    
CC_CONV=10,DBOC=ON,MEMORY=500000000)                                            
                                                                                
%isotopes                                                                       
16                                                                              
1                                                                               
37                                                                              
********************************************************************************
  @GTFLGS-I, Hessian will be transformed to curvilinear coordinates.
    -------------------------------------------------------------------
                    CFOUR Control Parameters 
    -------------------------------------------------------------------
        External           Internal           Value            Units
          Name               Name
    -------------------------------------------------------------------
       ABCDTYPE             IABCDT         STANDARD    [  0]    ***   
       ANHARMONIC           IANHAR         OFF         [  0]    ***   
       ANH_ALGORIT          IANALG         STANDARD    [  0]    ***   
       ANH_DERIVAT          IANDER         SECOND      [  1]    ***   
       ANH_MODE             ANHMOD         VIBRATION   [  0]    ***   
       ANH_STEPSIZ          ICUBST             50000          x 10-6  
       ANH_SYMMETR          IANHSM         ABELIAN     [  0]    ***   
       AO_LADDERS           IAOLAD         SINGLEPASS  [  1]    ***   
       AV_SCF               IAVSCF         OFF         [  0]    ***   
       BASIS                IBASIS         AUG-PCVTZ   [ 51]    ***   
       BOTHVECTORS          BOTHVC         OFF         [  0]    ***   
       BOX_POTENT           IPIAB          OFF         [  0]    ***   
       BREIT                IBREIT         OFF         [  0]    ***   
       BRUCK_CONV           IBRTOL          10D-  4             ***   
       BRUECKNER            IBRKNR         OFF         [  0]    ***   
       BUFFERSIZE           IBUFFS              4096            ***   
       CACHE_RECS           ICHREC             10               ***   
       CALCLEVEL            ICLLVL         CCSD        [ 10]    ***   
       CCORBOPT             ICCORB         OFF         [  0]  x 0.01  
       CC_CONV              ICCCNV          10D- 10             ***   
       CC_EXPORDER          ICCEOR              5               ***   
       CC_EXTRAPOL          ICCEXT         DIIS        [  1]    ***   
       CC_GUESS             ICCGES         MP2         [  0]    ***   
       CC_MAXCYC            ICCCYC            100              cycles 
       CC_PROGRAM           ICCPRO         VCC         [  0]    ***   
       CHARGE               ICHRGE              0               ***   
       CHOLESKY             ICHOLE         OFF         [  0]    ***   
       CIS_CONV             ICISTL              5               ***   
       COMM_SIZE            IPSIZE            ***               ***   
       CONSTANT             ICONST         OLD         [  1]    ***   
       CONTINUUM            ICONTU         NONE        [  0]    ***   
       CONTRACTION          ICNTYP         GENERAL     [  1]    ***   
       COORDINATES          ICOORD         INTERNAL    [  0]    ***   
       CPHF_CONVER          ICPHFT          10D- 16             ***   
       CPHF_MAXCYC          ICPHFC             64              cycles 
       CUBIC                ICUBIC         OFF         [  0]    ***   
       CURVILINEAR          ICURVY         ON          [  1]    ***   
       DBOC                 IDBOC          ON          [  1]    ***   
       DCT                  IDCT           OFF         [  0]    ***   
       DERIV_LEV            IDRLVL         SECOND      [  2]    ***   
       DEVMEM_SIZE          IDVMEM          50000000           MByte  
       DIAG_MRCC            IEOMST          10D-  0             ***   
       DIFF_TYPE            IDIFTY         RELAXED     [  0]    ***   
       DIRECT               IDIRCT         OFF         [  0]    ***   
       DROPMO               IDRPMO      NONE         
       ECP                  IECP           OFF         [  0]    ***   
       EIGENVECTOR          IVEC                1               ***   
       EL_ANHARM            IELANH         OFF         [  0]    ***   
       EOMFOLLOW            IEOMSR         ENERGY      [  0]    ***   
       EOMIP                IEOMIP         OFF         [  0]    ***   
       EOMLEVEL             HBARFM         SAME        [  0]    ***   
       EOM_MRCC             IMRCCE         NEW         [  1]    ***   
       EOM_NONIT            EOMNON         OFF         [  0]    ***   
       EOM_NSING            IEOMSI          10D-  0             ***   
       EOM_NSTATES          IMRCCD         DAVIDSON    [  0]    ***   
       EOM_NTRIP            IEOMTR          10D-  0             ***   
       EOM_ORDER            IEXORD         ENERGY      [  0]    ***   
       EOM_PROPSTA          IEOMST              0               ***   
       ESTATE_CONV          IEXTOL          10D-  5             ***   
       ESTATE_DIAG          IEXDIG         ITERATIVE   [  0]    ***   
       ESTATE_LOCK          IESLOC         ON          [  1]    ***   
       ESTATE_MAXC          IEXMXC             40               ***   
       ESTATE_PROP          IEXPRP         OFF         [  0]    ***   
       EVAL_HESS            IRECAL              0            # of cyc.
       EXCITATION           IEXCIT              0               ***   
       EXCITE               IEXCIT         NONE        [  0]    ***   
       EXTERN_POT           IEXPOT         OFF         [  0]    ***   
       FCGRADNEW            IFCGNW         OFF         [  0]    ***   
       FC_FIELD             IFINFC              0             x 10-6  
       FD_CALTYPE           IFDCAL         GRADONLY    [  0]    ***   
       FD_PROJECT           IFDPRJ         OFF         [  1]    ***   
       FD_STEPSIZE          IDISFD              0            10-4 bohr
       FD_USEGROUP          IFDGRP         FULL        [  0]    ***   
       FILE_RECSIZ          IFLREC              4096           words  
       FINITE_PERT          IFIPER              0             x 10-6  
       FIXGEOM              IFIXGM         OFF         [  0]    ***   
       FOCK                 IFOCK          AO          [  1]    ***   
       FREQ_ALGORI          IVIALG         STANDARD    [  0]    ***   
       FROZEN_CORE          IFROCO         OFF         [  0]    ***   
       GAMMA_ABCD           IGABCD         STORE       [  0]    ***   
       GAMMA_ABCI           IGABCI         STORE       [  0]    ***   
       GENBAS_1             IGNBS1              0               ***   
       GENBAS_2             IGNBS2              0               ***   
       GENBAS_3             IGNBS3              0               ***   
       GENBAS_4             IGNBS4              0               ***   
       GEO_CONV             ICONTL              5              H/bohr 
       GEO_MAXCYC           IOPTCY             50               ***   
       GEO_MAXSTEP          IMXSTP            300            millibohr
       GEO_METHOD           INR            SINGLE_POINT[  5]    ***   
       GIAO                 IGIAO          OFF         [  1]    ***   
       GIMIC                IGIMIC         OFF         [  0]    ***   
       GRID                 IGRID          OFF         [  0]    ***   
       GRID_ALGO            IGALGO         SERIAL      [  0]    ***   
       GUESS                IGUESS         MOREAD      [  0]    ***   
       HBAR                 IHBAR          OFF         [  0]    ***   
       HESS_TYPE            IHESTP         SCF         [  0]    ***   
       HF2_FILE             IHF2Fl         USE         [  1]    ***   
       HFSTABILITY          ISTABL         OFF         [  0]    ***   
       INCORE               INCORE         OFF         [  0]    ***   
       INPUT_MRCC           IMRCC          ON          [  1]    ***   
       INTEGRALS            INTTYP         VMOL        [  1]    ***   
       JODA_PRINT           IJPRNT              0               ***   
       KEYWORD_OUT          IDMPKW         NO          [  0]    ***   
       LINDEP_TOL           ILINDP              8               ***   
       LINEQ_CONV           IZTACN          10D-  7           cycles  
       LINEQ_EXPOR          ILMAXD              5               ***   
       LINEQ_MAXCY          ILMAXC            100               ***   
       LINEQ_TYPE           ILTYPE         DIIS        [  1]    ***   
       LOCK_ORBOCC          ILOCOC         OFF         [  0]    ***   
       MEMORY_SIZE          IMEMSZ         500000000           words  
       MEM_UNIT             IMEMU          INTEGERWORDS[  0]    ***   
       MRCC                 IMRCCC         OFF         [  0]    ***   
       MULTIPLICTY          IMULTP              1               ***   
       NACOUPLING           IVCOUP         OFF         [  0]    ***   
       NEGEVAL              IDIE           ABORT       [  0]    ***   
       NEWNORM              INEWNO         OFF         [  0]    ***   
       NON-HF               INONHF         OFF         [  0]    ***   
       NTOP_TAMP            ITOPT2             15               ***   
       NUC_MODEL            INUCMO         POINT       [  0]    ***   
       OCCUPATION           IOCCU   ESTIMATED BY SCF 
       OPEN-SHELL           IOPEN          SPIN-ORBITAL[  0]    ***   
       OPTVIB               IOPTVB         OFF         [  0]    ***   
       ORBITALS             IORBTP         STANDARD    [  0]    ***   
       PARALLEL             IPARAL         ON          [  1]    ***   
       PARA_INT             IPINTS         ON          [  1]    ***   
       PARA_PRINT           IPPRIN              0               ***   
       PERT_ORB             IPTORB         STANDARD    [  0]    ***   
       POINTS               IGRDFD              0               ***   
       PRINT                IPRNT               0               ***   
       PROPS                IPROPS         OFF         [  0]    ***   
       PROP_INTEGR          IINTYP         INTERNAL    [  0]    ***   
       PSI                  IPSI           OFF         [  0]    ***   
       QC_ALG               IQCALG         FLM         [  0]    ***   
       QC_LINALG            IQCLIN         TRIDIAG     [  2]    ***   
       QC_MAXCYC            IQCMAX          10D-100           cycles  
       QC_MAXSCFCY          IQCMSC          10D- 15           cycles  
       QC_RTRUST            IQCRTR          10D-  0           x 10-3  
       QC_SKIPSCF           IQCSKI         OFF         [  0]    ***   
       QC_START             IQCSTA          10D-  1             ***   
       QRHFGUESS            IQGUES         OFF         [  0]    ***   
       QUARTIC              IQUART         OFF         [  0]    ***   
       RAMAN_INT            IRAMIN         OFF         [  0]    ***   
       RAMAN_ORB            IRAMRE         UNRELAXED   [  0]    ***   
       RDO                  IRDOFM         ON          [  1]    ***   
       REDUCE_REPR          REDREP         Ir          [  0]    ***   
       REFERENCE            IREFNC         RHF         [  0]    ***   
       RELATIVIST           IRELAT         OFF         [  0]    ***   
       RELAX_DENS           IRDENS         ON          [  1]    ***   
       RESET_FLAGS          IRESET         OFF         [  0]    ***   
       RESTART_CC           ICCRES         OFF         [  0]    ***   
       ROT_EVEC             ROTVEC              0               ***   
       SAVE_INTS            ISVINT         OFF         [  0]    ***   
       SCALE_ON             ISTCRT              0               ***   
       SCF_CONV             ISCFCV          10D- 10             ***   
       SCF_DAMPING          IDAMP               0             x 10-3  
       SCF_EXPORDE          IRPPOR              6               ***   
       SCF_EXPSTAR          IRPPLS              8               ***   
       SCF_EXTRAPO          IRPP           ON          [  1]    ***   
       SCF_MAXCYC           ISCFCY            150              cycles 
       SCF_NOSTOP           ISCFST         OFF         [  0]    ***   
       SCF_PRINT            ISCFPR              0               ***   
       SCF_PROG             ISCFPR         SCF         [  0]    ***   
       SD_FIELD             IFINSD              0             x 10-6  
       SOPERT               IPERSO         OFF         [  0]    ***   
       SPHERICAL            IDFGHI         ON          [  1]    ***   
       SPINORBIT            ISOCAL         OFF         [  0]    ***   
       SPINROTATIO          ISRCON         OFF         [  0]    ***   
       SPIN_FLIP            ISPFLP         OFF         [  0]    ***   
       SPIN_ORBIT           ISPORB         OFF         [  0]    ***   
       SPIN_SCAL            ISCSMP         OFF         [  0]    ***   
       STEEPSCALE           ISTPSC              1000          x 10-3  
       SUBGROUP             ISUBGP         DEFAULT     [  0]    ***   
       SUBGRPAXIS           ISBXYZ         X           [  0]    ***   
       SYMMETRY             ISYM           ON          [  0]    ***   
       SYM_CHECK            ISYMCK         OVERRIDE    [  1]    ***   
       T3_EXTRAPOL          IT3EXT         OFF         [  0]    ***   
       T4_EXTRAPOL          IT4EXP         OFF         [  0]    ***   
       TAMP_SUM             IEVERY              5               ***   
       TESTSUITE            ITESTS         OFF         [  0]    ***   
       THERMOCH             ITHERM         OFF         [  0]    ***   
       TOL_CHOLESK          ITOLCH          10D-  4             ***   
       TRANGRAD             IRESRM         OFF         [  0]    ***   
       TRANS_INV            ITRAIN         IGNORE      [  1]    ***   
       TREAT_PERT           ITREAT         SIMULTANEOUS[  0]    ***   
       TRIP_ALGORI          ITRALG         NORMAL      [  0]    ***   
       UIJ_THRESHO          IUIJTH              1               ***   
       UNITS                IUNITS         ANGSTROM    [  0]    ***   
       UNOS                 IUNOS          OFF         [  0]    ***   
       UPDATE_HESS          IHUPDT         ON          [  1]    ***   
       VIBPHASE             ISETPH         STANDARD    [  0]    ***   
       VIBRATION            IVIB           ANALYTIC    [  1]    ***   
       VIB_ALGORIT          IGEALG         STANDARD    [  0]    ***   
       VNATORB              IVNORB         OFF         [  0]    ***   
       VTRAN                IVTRAN         FULL/PARTIAL[  0]    ***   
       XFIELD               IXEFLD              0             x 10-6  
       XFORM_TOL            IXFTOL          10D- 11             ***   
       YFIELD               IYEFLD              0             x 10-6  
       ZFIELD               IZEFLD              0             x 10-6  
       ZSCALE_EXP           IZEXPS         OFF         [  0]    ***   
    -------------------------------------------------------------------
   3 entries found in Z-matrix 
   Job Title : Hypochlorous acid DBOC calculation                                              
   There are  3 unique internal coordinates.
   Of these,  0 will be optimized.
   User supplied Z-matrix: 
--------------------------------------------------------------------------------
       SYMBOL    BOND      LENGTH    ANGLE     ANGLE     DIHED     ANGLE
                  TO      (ANGST)    WRT      (DEG)      WRT      (DEG)
--------------------------------------------------------------------------------
        O    
        H          1         ROH  
        CL         1         ROCL       2        A    
                  *Initial values for internal coordinates* 
                      Name             Value
                        ROH             1.4000000000
                        ROCL            1.6830000000
                        A             107.0000000000
--------------------------------------------------------------------------------
  read isotopes from ZMAT file 
   Rotational constants (in cm-1): 
          0.4698748345             0.4923430469            10.2963068132
   Rotational constants (in MHz): 
      14086.4951331707         14760.0752876174        308675.5560294905
********************************************************************************
   The full molecular point group is C s .
   The largest Abelian subgroup of the full molecular point group is C s .
   The computational point group is C s .
********************************************************************************
--------------------------------------------------------------------------------
   Analysis of internal coordinates specified by Z-matrix 
--------------------------------------------------------------------------------
   *The nuclear repulsion energy is   49.407235817846711 a.u.
   *There are   3 degrees of freedom within the tot. symm. molecular subspace.
   *Z-matrix requests optimization of   0 coordinates.
   *The optimization is constrained.
   *The following   3 parameters can have non-zero 
    derivatives within the totally symmetric subspace:
             A    [ 3]  ROH  [ 1]  ROCL [ 2]
   *The following   0 parameters are to be optimized:

   *The following coordinates must be varied in an  unconstrained optimization.
             A    [ 3]  ROH  [ 1]  ROCL [ 2]
--------------------------------------------------------------------------------


 ----------------------------------------------------------------
         Coordinates used in calculation (QCOMP) 
 ----------------------------------------------------------------
 Z-matrix   Atomic            Coordinates (in bohr)
  Symbol    Number           X              Y              Z
 ----------------------------------------------------------------
     O         8        -2.15643444     0.18665469     0.00000000
     H         1        -3.09143312    -2.28823268     0.00000000
     CL       17         1.01735940    -0.01837876     0.00000000
 ----------------------------------------------------------------
 
   Interatomic distance matrix (Angstroms) 
 
                 O             H             CL   
                [ 1]        [ 2]        [ 3]
  O    [ 1]     0.00000
  H    [ 2]     1.40000     0.00000
  CL   [ 3]     1.68300     2.48400     0.00000
 rotcon2
   Rotational constants (in cm-1): 
         10.2963068132             0.4923430469             0.4698748345
   Rotational constants (in MHz): 
     308675.5560294915         14760.0752876174         14086.4951331707
  ECPDATA file not present.   Using default ECPDATA. 
  @GTFLGS-I, Hessian will be transformed to curvilinear coordinates.
  There are  157 basis functions.
 @CHECKOUT-I, Total execution time (CPU/WALL):        1.38/       1.44 seconds.
--executable xjoda finished with status     0 in        1.53 seconds (walltime).
 --invoking executable--
/home/asmola/.local/bin/xvmol
 SERIAL VERSION OF MOLECULE STARTED
********************************************************************************
                    INPUT FROM MOL FILE
********************************************************************************
INTGRL        1    0    1    0    0    0    0    0    0                         
         *** CFOUR Program System (Release V0.1) ***                            
Hypochlorous acid DBOC calculation                                              
    3    1 Z          0.10E-08              0    0                              
   9999.00      3.00                                                            
          8.00000000    1    4    1    1    1    1                              
O #1  -2.156434443453553   0.186654685993266   0.000000000000000                
   13    7                                                                      
   15330.0000000000       5.080000000000000E-004 -1.150000000000000E-004        
  0.000000000000000E+000  0.000000000000000E+000  0.000000000000000E+000        
  0.000000000000000E+000  0.000000000000000E+000                                
   2299.00000000000       3.929000000000000E-003 -8.950000000000000E-004        
  0.000000000000000E+000  0.000000000000000E+000  0.000000000000000E+000        
  0.000000000000000E+000  0.000000000000000E+000                                
   522.400000000000       2.024300000000000E-002 -4.636000000000000E-003        
  0.000000000000000E+000  0.000000000000000E+000  0.000000000000000E+000        
  0.000000000000000E+000  0.000000000000000E+000                                
   147.300000000000       7.918100000000000E-002 -1.872400000000000E-002        
  0.000000000000000E+000  0.000000000000000E+000  0.000000000000000E+000        
  0.000000000000000E+000  0.000000000000000E+000                                
   47.5500000000000       0.230687000000000      -5.846300000000000E-002        
  0.000000000000000E+000  0.000000000000000E+000  0.000000000000000E+000        
  0.000000000000000E+000  0.000000000000000E+000                                
   16.7600000000000       0.433118000000000      -0.136463000000000             
  0.000000000000000E+000  0.000000000000000E+000  0.000000000000000E+000        
  0.000000000000000E+000  0.000000000000000E+000                                
   6.20700000000000       0.350260000000000      -0.175740000000000             
  0.000000000000000E+000  0.000000000000000E+000  0.000000000000000E+000        
  0.000000000000000E+000  0.000000000000000E+000                                
   1.75200000000000       4.272800000000000E-002  0.160934000000000             
   1.00000000000000       0.000000000000000E+000  0.000000000000000E+000        
  0.000000000000000E+000  0.000000000000000E+000                                
  0.688200000000000      -8.154000000000000E-003  0.603418000000000             
  0.000000000000000E+000  0.000000000000000E+000  0.000000000000000E+000        
  0.000000000000000E+000  0.000000000000000E+000                                
  0.238400000000000       2.381000000000000E-003  0.378765000000000             
  0.000000000000000E+000   1.00000000000000       0.000000000000000E+000        
  0.000000000000000E+000  0.000000000000000E+000                                
   7.84500000000000       0.000000000000000E+000  0.000000000000000E+000        
  0.000000000000000E+000  0.000000000000000E+000   1.00000000000000             
  0.000000000000000E+000  0.000000000000000E+000                                
   21.0320000000000       0.000000000000000E+000  0.000000000000000E+000        
  0.000000000000000E+000  0.000000000000000E+000  0.000000000000000E+000        
   1.00000000000000       0.000000000000000E+000                                
  7.376000000000001E-002  0.000000000000000E+000  0.000000000000000E+000        
  0.000000000000000E+000  0.000000000000000E+000  0.000000000000000E+000        
  0.000000000000000E+000   1.00000000000000                                     
    8    6                                                                      
   34.4600000000000       1.592800000000000E-002  0.000000000000000E+000        
  0.000000000000000E+000  0.000000000000000E+000  0.000000000000000E+000        
  0.000000000000000E+000                                                        
   7.74900000000000       9.974000000000000E-002  0.000000000000000E+000        
  0.000000000000000E+000  0.000000000000000E+000  0.000000000000000E+000        
  0.000000000000000E+000                                                        
   2.28000000000000       0.310492000000000       0.000000000000000E+000        
  0.000000000000000E+000  0.000000000000000E+000  0.000000000000000E+000        
  0.000000000000000E+000                                                        
  0.715600000000000       0.491026000000000        1.00000000000000             
  0.000000000000000E+000  0.000000000000000E+000  0.000000000000000E+000        
  0.000000000000000E+000                                                        
  0.214000000000000       0.336337000000000       0.000000000000000E+000        
   1.00000000000000       0.000000000000000E+000  0.000000000000000E+000        
  0.000000000000000E+000                                                        
   15.1590000000000       0.000000000000000E+000  0.000000000000000E+000        
  0.000000000000000E+000   1.00000000000000       0.000000000000000E+000        
  0.000000000000000E+000                                                        
   57.4370000000000       0.000000000000000E+000  0.000000000000000E+000        
  0.000000000000000E+000  0.000000000000000E+000   1.00000000000000             
  0.000000000000000E+000                                                        
  5.974000000000000E-002  0.000000000000000E+000  0.000000000000000E+000        
  0.000000000000000E+000  0.000000000000000E+000  0.000000000000000E+000        
   1.00000000000000                                                             
    4    4                                                                      
   2.31400000000000        1.00000000000000       0.000000000000000E+000        
  0.000000000000000E+000  0.000000000000000E+000                                
  0.645000000000000       0.000000000000000E+000   1.00000000000000             
  0.000000000000000E+000  0.000000000000000E+000                                
   15.8580000000000       0.000000000000000E+000  0.000000000000000E+000        
   1.00000000000000       0.000000000000000E+000                                
  0.214000000000000       0.000000000000000E+000  0.000000000000000E+000        
  0.000000000000000E+000   1.00000000000000                                     
    2    2                                                                      
   1.42800000000000        1.00000000000000       0.000000000000000E+000        
  0.500000000000000       0.000000000000000E+000   1.00000000000000             
          1.00000000    1    3    1    1    1                                   
H #2  -3.091433119268918  -2.288232678946055   0.000000000000000                
    6    4                                                                      
   33.8700000000000       6.068000000000000E-003  0.000000000000000E+000        
  0.000000000000000E+000  0.000000000000000E+000                                
   5.09500000000000       4.530800000000000E-002  0.000000000000000E+000        
  0.000000000000000E+000  0.000000000000000E+000                                
   1.15900000000000       0.202822000000000       0.000000000000000E+000        
  0.000000000000000E+000  0.000000000000000E+000                                
  0.325800000000000       0.503903000000000        1.00000000000000             
  0.000000000000000E+000  0.000000000000000E+000                                
  0.102700000000000       0.383421000000000       0.000000000000000E+000        
   1.00000000000000       0.000000000000000E+000                                
  2.526000000000000E-002  0.000000000000000E+000  0.000000000000000E+000        
  0.000000000000000E+000   1.00000000000000                                     
    3    3                                                                      
   1.40700000000000        1.00000000000000       0.000000000000000E+000        
  0.000000000000000E+000                                                        
  0.388000000000000       0.000000000000000E+000   1.00000000000000             
  0.000000000000000E+000                                                        
  0.102000000000000       0.000000000000000E+000  0.000000000000000E+000        
   1.00000000000000                                                             
    2    2                                                                      
   1.05700000000000        1.00000000000000       0.000000000000000E+000        
  0.247000000000000       0.000000000000000E+000   1.00000000000000             
         17.00000000    1    4    1    1    1    1                              
CL#3   1.017359400268270  -0.018378763667392   0.000000000000000                
   18    8                                                                      
   456100.000000000       4.930000000000000E-005 -1.380000000000000E-005        
  4.200000000000000E-006  0.000000000000000E+000  0.000000000000000E+000        
  0.000000000000000E+000  0.000000000000000E+000  0.000000000000000E+000        
   68330.0000000000       3.830000000000000E-004 -1.073000000000000E-004        
  3.240000000000000E-005  0.000000000000000E+000  0.000000000000000E+000        
  0.000000000000000E+000  0.000000000000000E+000  0.000000000000000E+000        
   15550.0000000000       2.008500000000000E-003 -5.651000000000000E-004        
  1.711000000000000E-004  0.000000000000000E+000  0.000000000000000E+000        
  0.000000000000000E+000  0.000000000000000E+000  0.000000000000000E+000        
   4405.00000000000       8.385600000000000E-003 -2.361400000000000E-003        
  7.142000000000000E-004  0.000000000000000E+000  0.000000000000000E+000        
  0.000000000000000E+000  0.000000000000000E+000  0.000000000000000E+000        
   1439.00000000000       2.947030000000000E-002 -8.458900000000000E-003        
  2.567000000000000E-003  0.000000000000000E+000  0.000000000000000E+000        
  0.000000000000000E+000  0.000000000000000E+000  0.000000000000000E+000        
   520.400000000000       8.783249999999999E-002 -2.596380000000000E-002        
  7.885500000000000E-003  0.000000000000000E+000  0.000000000000000E+000        
  0.000000000000000E+000  0.000000000000000E+000  0.000000000000000E+000        
   203.100000000000       0.211473000000000      -6.863619999999999E-002        
  2.108670000000000E-002  0.000000000000000E+000  0.000000000000000E+000        
  0.000000000000000E+000  0.000000000000000E+000  0.000000000000000E+000        
   83.9600000000000       0.365364000000000      -0.141874000000000             
  4.422640000000000E-002  0.000000000000000E+000  0.000000000000000E+000        
  0.000000000000000E+000  0.000000000000000E+000  0.000000000000000E+000        
   36.2000000000000       0.340884000000000      -0.199319000000000             
  6.516700000000000E-002  0.000000000000000E+000  0.000000000000000E+000        
  0.000000000000000E+000  0.000000000000000E+000  0.000000000000000E+000        
   15.8300000000000       0.102133000000000      -1.956620000000000E-002        
  6.030100000000000E-003  0.000000000000000E+000  0.000000000000000E+000        
  0.000000000000000E+000  0.000000000000000E+000  0.000000000000000E+000        
   6.33400000000000       3.116800000000000E-003  0.499741000000000             
 -0.206495000000000       0.000000000000000E+000  0.000000000000000E+000        
  0.000000000000000E+000  0.000000000000000E+000  0.000000000000000E+000        
   2.69400000000000       1.057500000000000E-003  0.563736000000000             
 -0.405871000000000       0.000000000000000E+000  0.000000000000000E+000        
  0.000000000000000E+000  0.000000000000000E+000  0.000000000000000E+000        
  0.976800000000000      -3.780000000000000E-004  7.903250000000001E-002        
  7.595580000000000E-002   1.00000000000000       0.000000000000000E+000        
  0.000000000000000E+000  0.000000000000000E+000  0.000000000000000E+000        
  0.431300000000000       1.561000000000000E-004 -8.350900000000000E-003        
  0.725661000000000       0.000000000000000E+000  0.000000000000000E+000        
  0.000000000000000E+000  0.000000000000000E+000  0.000000000000000E+000        
  0.162500000000000      -5.140000000000000E-005  2.324600000000000E-003        
  0.394423000000000       0.000000000000000E+000   1.00000000000000             
  0.000000000000000E+000  0.000000000000000E+000  0.000000000000000E+000        
   15.0640000000000       0.000000000000000E+000  0.000000000000000E+000        
  0.000000000000000E+000  0.000000000000000E+000  0.000000000000000E+000        
   1.00000000000000       0.000000000000000E+000  0.000000000000000E+000        
   2.87400000000000       0.000000000000000E+000  0.000000000000000E+000        
  0.000000000000000E+000  0.000000000000000E+000  0.000000000000000E+000        
  0.000000000000000E+000   1.00000000000000       0.000000000000000E+000        
  5.910000000000000E-002  0.000000000000000E+000  0.000000000000000E+000        
  0.000000000000000E+000  0.000000000000000E+000  0.000000000000000E+000        
  0.000000000000000E+000  0.000000000000000E+000   1.00000000000000             
   12    7                                                                      
   663.300000000000       2.404500000000000E-003 -6.521000000000000E-004        
  0.000000000000000E+000  0.000000000000000E+000  0.000000000000000E+000        
  0.000000000000000E+000  0.000000000000000E+000                                
   156.800000000000       1.921480000000000E-002 -5.194500000000000E-003        
  0.000000000000000E+000  0.000000000000000E+000  0.000000000000000E+000        
  0.000000000000000E+000  0.000000000000000E+000                                
   49.9800000000000       8.850970000000000E-002 -2.469380000000000E-002        
  0.000000000000000E+000  0.000000000000000E+000  0.000000000000000E+000        
  0.000000000000000E+000  0.000000000000000E+000                                
   18.4200000000000       0.256020000000000      -7.281670000000000E-002        
  0.000000000000000E+000  0.000000000000000E+000  0.000000000000000E+000        
  0.000000000000000E+000  0.000000000000000E+000                                
   7.24000000000000       0.436927000000000      -0.134030000000000             
  0.000000000000000E+000  0.000000000000000E+000  0.000000000000000E+000        
  0.000000000000000E+000  0.000000000000000E+000                                
   2.92200000000000       0.350334000000000      -9.477420000000000E-002        
  0.000000000000000E+000  0.000000000000000E+000  0.000000000000000E+000        
  0.000000000000000E+000  0.000000000000000E+000                                
   1.02200000000000       5.854950000000000E-002  0.262289000000000             
   1.00000000000000       0.000000000000000E+000  0.000000000000000E+000        
  0.000000000000000E+000  0.000000000000000E+000                                
  0.381800000000000      -4.584200000000000E-003  0.564667000000000             
  0.000000000000000E+000  0.000000000000000E+000  0.000000000000000E+000        
  0.000000000000000E+000  0.000000000000000E+000                                
  0.130100000000000       2.269700000000000E-003  0.341250000000000             
  0.000000000000000E+000   1.00000000000000       0.000000000000000E+000        
  0.000000000000000E+000  0.000000000000000E+000                                
   9.48000000000000       0.000000000000000E+000  0.000000000000000E+000        
  0.000000000000000E+000  0.000000000000000E+000   1.00000000000000             
  0.000000000000000E+000  0.000000000000000E+000                                
   3.66800000000000       0.000000000000000E+000  0.000000000000000E+000        
  0.000000000000000E+000  0.000000000000000E+000  0.000000000000000E+000        
   1.00000000000000       0.000000000000000E+000                                
  4.190000000000000E-002  0.000000000000000E+000  0.000000000000000E+000        
  0.000000000000000E+000  0.000000000000000E+000  0.000000000000000E+000        
  0.000000000000000E+000   1.00000000000000                                     
    5    5                                                                      
   1.04600000000000        1.00000000000000       0.000000000000000E+000        
  0.000000000000000E+000  0.000000000000000E+000  0.000000000000000E+000        
  0.344000000000000       0.000000000000000E+000   1.00000000000000             
  0.000000000000000E+000  0.000000000000000E+000  0.000000000000000E+000        
   17.9570000000000       0.000000000000000E+000  0.000000000000000E+000        
   1.00000000000000       0.000000000000000E+000  0.000000000000000E+000        
   5.76000000000000       0.000000000000000E+000  0.000000000000000E+000        
  0.000000000000000E+000   1.00000000000000       0.000000000000000E+000        
  0.135000000000000       0.000000000000000E+000  0.000000000000000E+000        
  0.000000000000000E+000  0.000000000000000E+000   1.00000000000000             
    3    3                                                                      
  0.706000000000000        1.00000000000000       0.000000000000000E+000        
  0.000000000000000E+000                                                        
   11.7790000000000       0.000000000000000E+000   1.00000000000000             
  0.000000000000000E+000                                                        
  0.312000000000000       0.000000000000000E+000  0.000000000000000E+000        
   1.00000000000000                                                             
FINISH                                                                          
 
********************************************************************************
 ONE- AND TWO-ELECTRON INTEGRALS OVER SYMMETRY-ADAPTED AOS ARE CALCULATED.

  SPHERICAL HARMONICS ARE USED.
  
  INTEGRALS LESS THAN  0.10E-13 ARE NEGLECTED.

  NUCLEAR REPULSION ENERGY :   49.4072358178 A.U.
  @MOLECU-I, ONE ELECTRON INTEGRALS (CPU/WALL):        0.06/       0.07 SECONDS.
  @TWOEL-I,   14207000 INTEGRALS OF SYMMETRY TYPE  I I I I
  @TWOEL-I,   13392633 INTEGRALS OF SYMMETRY TYPE  I J I J
  @TWOEL-I,    6925781 INTEGRALS OF SYMMETRY TYPE  I I J J
  @TWOEL-I, TOTAL NUMBER OF 2-E INTEGRALS   34525414.
  @MOLECU-I, TWO ELECTRON INTEGRALS (CPU/WALL):       56.63/       9.69 SECONDS.
 @CHECKOUT-I, Total execution time (CPU/WALL):       56.72/       9.81 seconds.

Running with 14 threads/proc

--executable xvmol finished with status     0 in        9.93 seconds (walltime).
 --invoking executable--
/home/asmola/.local/bin/xvmol2ja
 @GETMEM-I,  Allocated    3814 MB of main memory.
 @CHECKOUT-I, Total execution time (CPU/WALL):        0.13/       0.04 seconds.
--executable xvmol2ja finished with status     0 in        0.11 seconds (walltime).
 --invoking executable--
/home/asmola/.local/bin/xvscf
  There are  157 functions in the AO basis.

  There are 2 irreducible representations.

       Irrep        # of functions
         1                104
         2                 53


  Parameters for SCF calculation: 
        SCF reference function:  RHF  
  Maximum number of iterations:  150
     Full symmetry point group: C s 
     Computational point group: C s 
        Initial density matrix: MOREAD                 
     SCF convergence tolerance: 10**(-10)
  DIIS convergence acceleration:  ON
          Latest start for DIIS:   8
                     DIIS order:   6

  Memory information:    1209746 words required.
  Fock matrices are constructed from AO integral file.
 @GETMEM-I,  Allocated       9 MB of main memory.
  Initialization and symmetry analysis required      0.002 seconds.

  @INITGES-I, Occupancies from core Hamiltonian:

          Alpha population by irrep:  10    3
           Beta population by irrep:  10    3


 total no. of electrons in initial guess :  0.000000000000000E+000
  --------------------------------------------------------------------
  Iteration         Total Energy            Largest Density Difference
  --------------------------------------------------------------------
       0            49.407235817846711              0.0000000000D+00
   current occupation vector 
    10  3
    10  3
       1          -366.098760656665206              0.1326031384D+02
   current occupation vector 
    10  3
    10  3
       2          -342.138798248528246              0.1323393898D+02
   current occupation vector 
    10  3
    10  3
       3          -422.057521882304741              0.1070784315D+02
   current occupation vector 
    10  3
    10  3
       4          -339.848785170681083              0.1071514236D+02
   current occupation vector 
    10  3
    10  3
       5          -421.867631968114097              0.1066856421D+02
   current occupation vector 
    10  3
    10  3
       6          -339.784362089439242              0.1066872078D+02
   current occupation vector 
    10  3
    10  3
       7          -421.861713088792442              0.1066727868D+02
   current occupation vector 
    10  3
    10  3
       8          -339.782609372019522              0.1066728295D+02
   current occupation vector 
    10  3
    10  3
       9          -444.933360284971059              0.8453691883D+01
   current occupation vector 
    10  3
    10  3
      10          -464.262456171550355              0.2127251831D+01
   current occupation vector 
    10  3
    10  3
      11          -468.921166226427260              0.5291881448D+00
   current occupation vector 
    10  3
    10  3
      12          -468.788064128889175              0.1077162509D+00
   current occupation vector 
    10  3
    10  3
      13          -472.010686860338808              0.3971678034D+00
   current occupation vector 
    10  3
    10  3
      14          -472.657757866993336              0.2211298603D+00
   current occupation vector 
    10  3
    10  3
      15          -507.622628427725147              0.7457086443D+01
   current occupation vector 
    10  3
    10  3
      16          -517.814255551773499              0.7456846374D+01
   current occupation vector 
    10  3
    10  3
      17          -523.526329113315683              0.4651843942D+01
   current occupation vector 
    11  2
    11  2
      18          -533.488959388899957              0.2393759924D+01
   current occupation vector 
    10  3
    10  3
      19          -534.601963790478408              0.1127631826D+01
   current occupation vector 
    10  3
    10  3
      20          -534.805088563245818              0.3511515307D+00
   current occupation vector 
    10  3
    10  3
      21          -534.825682730709218              0.2027655477D+00
   current occupation vector 
    10  3
    10  3
      22          -534.829389961201741              0.5638028199D-01
   current occupation vector 
    10  3
    10  3
      23          -534.830082333214364              0.2528532379D-01
   current occupation vector 
    10  3
    10  3
      24          -534.830201711502696              0.1222144254D-01
   current occupation vector 
    10  3
    10  3
      25          -534.830235848971711              0.7120389927D-02
   current occupation vector 
    10  3
    10  3
      26          -534.830239024107641              0.2501047627D-02
   current occupation vector 
    10  3
    10  3
      27          -534.830239360353403              0.8678400729D-03
   current occupation vector 
    10  3
    10  3
      28          -534.830239398933259              0.2063529169D-03
   current occupation vector 
    10  3
    10  3
      29          -534.830239403926953              0.1187601795D-03
   current occupation vector 
    10  3
    10  3
      30          -534.830239404359872              0.2992319187D-04
   current occupation vector 
    10  3
    10  3
      31          -534.830239404416830              0.8763181473D-05
   current occupation vector 
    10  3
    10  3
      32          -534.830239404427743              0.5160218302D-05
   current occupation vector 
    10  3
    10  3
      33          -534.830239404430699              0.1328504949D-05
   current occupation vector 
    10  3
    10  3
      34          -534.830239404428653              0.3240440229D-06
   current occupation vector 
    10  3
    10  3
      35          -534.830239404428994              0.1362386494D-06
   current occupation vector 
    10  3
    10  3
      36          -534.830239404428767              0.7088679821D-07
   current occupation vector 
    10  3
    10  3
      37          -534.830239404429562              0.2427788470D-07
   current occupation vector 
    10  3
    10  3
      38          -534.830239404429449              0.1640080227D-07
   current occupation vector 
    10  3
    10  3
      39          -534.830239404427402              0.3568183859D-08
   current occupation vector 
    10  3
    10  3
      40          -534.830239404423992              0.3189289846D-08
   current occupation vector 
    10  3
    10  3
      41          -534.830239404429221              0.9547230437D-09
   current occupation vector 
    10  3
    10  3
      42          -534.830239404426948              0.1676514483D-09
   current occupation vector 
    10  3
    10  3

  SCF has converged.

 Density matrix saved to file den.dat
 total electron number:   26.0000000000002     
     E(SCF)=      -534.830239404427061              0.7267253466D-10

  Eigenvector printing suppressed.

 @PUTMOS-I, Writing converged MOs to NEWMOS. 
 @PUTMOS-I, Symmetry   1 Full Blocks 26 Partial Blocksize   0
 @PUTMOS-I, Symmetry   2 Full Blocks 13 Partial Blocksize   1
 @PUTFOCK-I, Writing converged Fock matrix to NEWFOCK. 
 @PUTFOCK-I, Symmetry   1 Full Blocks 26 Partial Blocksize   0
 @PUTFOCK-I, Symmetry   2 Full Blocks 13 Partial Blocksize   1


 
  ORBITAL EIGENVALUES (ALPHA)  (1H = 27.2113834 eV)

       MO #        E(hartree)               E(eV)           FULLSYM    COMPSYM
       ----   --------------------   --------------------   -------   ---------
    1     1        -104.8833130511       -2854.0200436944     A'        A'  (1)
    2     2         -20.6622346925        -562.2479901176     A'        A'  (1)
    3     3         -10.6032520992        -288.5291581581     A'        A'  (1)
    4     4          -8.0699478744        -219.5944456270     A'        A'  (1)
    5     5          -8.0677089528        -219.5335214734     A'        A'  (1)
    6   105          -8.0675414766        -219.5289642148     A''       A'' (2)
    7     6          -1.3603452947         -37.0168773706     A'        A'  (1)
    8     7          -1.0324975476         -28.0956866286     A'        A'  (1)
    9     8          -0.6257786108         -17.0283017012     A'        A'  (1)
   10   106          -0.6036756483         -16.4268495139     A''       A'' (2)
   11     9          -0.5896097293         -16.0440964004     A'        A'  (1)
   12    10          -0.4442731919         -12.0892881600     A'        A'  (1)
   13   107          -0.4346000695         -11.8260691180     A''       A'' (2)
  +++++++++++++++++++++++++++++++++++++++++++++++++++++++++++++++++++++++++++++
   14    11           0.0061749356           0.1680285411     A'        A'  (1)
   15    12           0.0598009919           1.6272677196     A'        A'  (1)
   16    13           0.0982049840           2.6722934708     A'        A'  (1)
   17   108           0.1174949051           3.1971989089     A''       A'' (2)
   18    14           0.1205873439           3.2813484468     A'        A'  (1)
   19    15           0.1532805976           4.1709771103     A'        A'  (1)
   20    16           0.1655377330           4.5045107202     A'        A'  (1)
   21    17           0.1758295831           4.7845661992     A'        A'  (1)
   22   109           0.1926231048           5.2415411554     A''       A'' (2)
   23    18           0.2225518718           6.0559443090     A'        A'  (1)
   24   110           0.2508431840           6.8257900530     A''       A'' (2)
   25    19           0.2894248225           7.8756498100     A'        A'  (1)
   26    20           0.3320333907           9.0350878973     A'        A'  (1)
   27    21           0.3324491676           9.0464017593     A'        A'  (1)
   28   111           0.3782726735          10.2933227485     A''       A'' (2)
   29    22           0.3898299996          10.6078135794     A'        A'  (1)
   30   112           0.4246569704          11.5555036351     A''       A'' (2)
   31    23           0.4580869644          12.4651800186     A'        A'  (1)
   32    24           0.5081833006          13.8283706290     A'        A'  (1)
   33    25           0.5926984014          16.1281434413     A'        A'  (1)
   34   113           0.6170318953          16.7902914722     A''       A'' (2)
   35    26           0.6644332767          18.0801486362     A'        A'  (1)
   36    27           0.6812313994          18.5372487925     A'        A'  (1)
   37   114           0.7456082727          20.2890325743     A''       A'' (2)
   38    28           0.7507970093          20.4302252750     A'        A'  (1)
   39    29           0.7650943795          20.8192764979     A'        A'  (1)
   40   115           0.7729365998          21.0326741599     A''       A'' (2)
   41    30           0.8263762201          22.4868401585     A'        A'  (1)
   42    31           0.8440039475          22.9665150077     A'        A'  (1)
   43   116           0.8513511220          23.1664417880     A''       A'' (2)
   44   117           0.8996175913          24.4798391915     A''       A'' (2)
   45    32           0.9018292553          24.5400216267     A'        A'  (1)
   46    33           0.9394388311          25.5634302140     A'        A'  (1)
   47   118           0.9403103902          25.5871465426     A''       A'' (2)
   48   119           0.9541634661          25.9641079014     A''       A'' (2)
   49    34           0.9610114357          26.1504506291     A'        A'  (1)
   50    35           1.0139654125          27.5914015939     A'        A'  (1)
   51    36           1.0265871766          27.9348572549     A'        A'  (1)
   52    37           1.1125778425          30.2747822342     A'        A'  (1)
   53   120           1.1210963980          30.5065839137     A''       A'' (2)
   54    38           1.1326183910          30.8201132822     A'        A'  (1)
   55   121           1.1788748969          32.0788167999     A''       A'' (2)
   56    39           1.2273628716          33.3982416706     A'        A'  (1)
   57    40           1.2707834149          34.5797747217     A'        A'  (1)
   58   122           1.3475769581          36.6694332685     A''       A'' (2)
   59   123           1.4096519828          38.3585805650     A''       A'' (2)
   60    41           1.4651041004          39.8675093964     A'        A'  (1)
   61    42           1.5114300317          41.1281020748     A'        A'  (1)
   62   124           1.5252734930          41.5048018078     A''       A'' (2)
   63    43           1.5726519523          42.7940352286     A'        A'  (1)
   64    44           1.6297426738          44.3475527399     A'        A'  (1)
   65    45           1.7357843384          47.2330931306     A'        A'  (1)
   66    46           1.8223782569          49.5894334473     A'        A'  (1)
   67   125           2.1707635116          59.0694781839     A''       A'' (2)
   68   126           2.2162992647          60.3085690208     A''       A'' (2)
   69    47           2.2263281710          60.5814694359     A'        A'  (1)
   70    48           2.2723128424          61.8327759596     A'        A'  (1)
   71    49           2.3065487767          62.7643830924     A'        A'  (1)
   72   127           2.3106021710          62.8746815608     A''       A'' (2)
   73    50           2.3247950346          63.2608890127     A'        A'  (1)
   74    51           2.3728105704          64.5674581662     A'        A'  (1)
   75    52           2.4394787647          66.3815919634     A'        A'  (1)
   76   128           2.4397243313          66.3882741690     A''       A'' (2)
   77   129           2.4622998301          67.0025847223     A''       A'' (2)
   78   130           2.4805059820          67.4979993032     A''       A'' (2)
   79    53           2.5030641202          68.1118374482     A'        A'  (1)
   80   131           2.5798733794          70.2019236497     A''       A'' (2)
   81    54           2.6380894410          71.7860632235     A'        A'  (1)
   82    55           2.7719068228          75.4274193037     A'        A'  (1)
   83    56           2.8725093475          78.1649531741     A'        A'  (1)
   84   132           2.9005647690          78.9283800057     A''       A'' (2)
   85    57           2.9767630620          81.0018409722     A'        A'  (1)
   86    58           3.0571372588          83.1889340563     A'        A'  (1)
   87   133           3.0648135856          83.3978175268     A''       A'' (2)
   88   134           3.1155949456          84.7796485826     A''       A'' (2)
   89    59           3.1296578697          85.1623202022     A'        A'  (1)
   90    60           3.2107167385          87.3680441605     A'        A'  (1)
   91    61           3.2470108735          88.3556577840     A'        A'  (1)
   92   135           3.3605644671          91.4456081548     A''       A'' (2)
   93    62           3.3835400396          92.0708052682     A'        A'  (1)
   94    63           3.4312005243          93.3677129897     A'        A'  (1)
   95    64           3.7994793024         103.3890880184     A'        A'  (1)
   96   136           3.8694750858         105.2937701165     A''       A'' (2)
   97    65           3.9368656227         107.1275598531     A'        A'  (1)
   98    66           3.9842209696         108.4161643529     A'        A'  (1)
   99   137           4.0491038453         110.1817171601     A''       A'' (2)
  100   138           4.1989413797         114.2590037567     A''       A'' (2)
  101   139           4.3377147084         118.0352180099     A''       A'' (2)
  102    67           4.3492848181         118.3500567015     A'        A'  (1)
  103    68           4.3724771152         118.9811511905     A'        A'  (1)
  104    69           4.7075097148         128.0978517075     A'        A'  (1)
  105    70           5.1020648725         138.8342433768     A'        A'  (1)
  106    71           5.5844712275         151.9611876567     A'        A'  (1)
  107    72           5.8820015931         160.0574005097     A'        A'  (1)
  108   140           6.5993352149         179.5770407166     A''       A'' (2)
  109    73           6.6540353193         181.0655062315     A'        A'  (1)
  110   141           6.6978154675         182.2568246275     A''       A'' (2)
  111    74           6.7258643026         183.0200722331     A'        A'  (1)
  112   142           6.7744936240         184.3433433440     A''       A'' (2)
  113    75           6.8981724155         187.7088143586     A'        A'  (1)
  114    76           7.0831862795         192.7432975461     A'        A'  (1)
  115   143           7.1078039773         193.4131791585     A''       A'' (2)
  116    77           7.1631094613         194.9181178863     A'        A'  (1)
  117   144           7.1852170190         195.5196951158     A''       A'' (2)
  118    78           7.6147526210         207.2079530652     A'        A'  (1)
  119    79           7.7991674812         212.2261365309     A'        A'  (1)
  120   145          10.3556088600         281.7904430286     A''       A'' (2)
  121    80          10.3585212105         281.8696921147     A'        A'  (1)
  122   146          10.3940155261         282.8355415470     A''       A'' (2)
  123    81          10.4414413735         284.1260644633     A'        A'  (1)
  124    82          10.6075254441         288.6454417833     A'        A'  (1)
  125   147          12.6855077126         345.1902139919     A''       A'' (2)
  126    83          12.7338835925         346.5065886071     A'        A'  (1)
  127    84          13.2105038092         359.4760840597     A'        A'  (1)
  128    85          18.2684204459         497.1089928648     A'        A'  (1)
  129   148          26.0561195174         709.0230581049     A''       A'' (2)
  130    86          26.4488849888         719.7107499331     A'        A'  (1)
  131    87          26.6329947089         724.7206301134     A'        A'  (1)
  132    88          28.7504086493         782.3383926633     A'        A'  (1)
  133   149          36.9021126274        1004.1575349737     A''       A'' (2)
  134   150          36.9031801460        1004.1865836333     A''       A'' (2)
  135    89          36.9032629072        1004.1888356776     A'        A'  (1)
  136    90          36.9058260364        1004.2585819700     A'        A'  (1)
  137   151          36.9114459281        1004.4115069985     A''       A'' (2)
  138    91          36.9115665478        1004.4147892279     A'        A'  (1)
  139    92          36.9157364788        1004.5282588179     A'        A'  (1)
  140   152          43.8817907248        1194.0842316917     A''       A'' (2)
  141    93          43.8907437431        1194.3278557040     A'        A'  (1)
  142   153          43.9042760898        1194.6960895789     A''       A'' (2)
  143    94          44.0334123323        1198.2100653844     A'        A'  (1)
  144    95          44.0891092849        1199.7256565158     A'        A'  (1)
  145   154          46.4893937507        1265.0407173835     A''       A'' (2)
  146    96          46.4910509052        1265.0858108492     A'        A'  (1)
  147   155          46.5142626770        1265.7174352712     A''       A'' (2)
  148    97          46.5395415652        1266.4053087917     A'        A'  (1)
  149    98          46.6227016463        1268.6682096410     A'        A'  (1)
  150   156          55.0250692657        1497.3082564009     A''       A'' (2)
  151    99          55.0777993771        1498.7431156795     A'        A'  (1)
  152   100          55.6359582864        1513.9313917583     A'        A'  (1)
  153   101         103.8334833230        2825.4527244597     A'        A'  (1)
  154   157         138.2172639954        3761.0829630773     A''       A'' (2)
  155   102         138.4871548715        3768.4270671825     A'        A'  (1)
  156   103         138.6221042638        3772.0992268358     A'        A'  (1)
  157   104         149.4601927886        4067.0186090092     A'        A'  (1)


  VSCF finished.

 @CHECKOUT-I, Total execution time (CPU/WALL):       72.25/      14.73 seconds.
--executable xvscf finished with status     0 in       14.77 seconds (walltime).
 --invoking executable--
/home/asmola/.local/bin/xvtran
 @GETMEM-I,  Allocated    3814 MB of main memory.
  Full RHF integral transformation
  Transformation of IIII integrals :
  1 pass through the AO integral file was required.
    14207000 AO integrals were read.
    15933126 MO integrals were written to HF2.
  Transformation of IIJJ integrals :
  1 pass through the AO integral file was required.
     6925781 AO integrals were read.
     7813260 MO integrals were written to HF2.
  Transformation of IJIJ integrals :
  1 pass through the AO integral file was required.
    13392633 AO integrals were read.
    15193828 MO integrals were written to HF2.
  Summary of active molecular orbitals: 
------------------------------------------------------------------------
 
  Index      Eigenvalue    Symmetry    Index      Eigenvalue    Symmetry
------------------------------------------------------------------------
     1      -104.8833131        1        80         7.1631095        1
     2       -20.6622347        1        81         7.6147526        1
     3       -10.6032521        1        82         7.7991675        1
     4        -8.0699479        1        83        10.3585212        1
     5        -8.0677090        1        84        10.4414414        1
     6        -1.3603453        1        85        10.6075254        1
     7        -1.0324975        1        86        12.7338836        1
     8        -0.6257786        1        87        13.2105038        1
     9        -0.5896097        1        88        18.2684204        1
    10        -0.4442732        1        89        26.4488850        1
    11        -8.0675415        2        90        26.6329947        1
    12        -0.6036756        2        91        28.7504086        1
    13        -0.4346001        2        92        36.9032629        1
    14         0.0061749        1        93        36.9058260        1
    15         0.0598010        1        94        36.9115665        1
    16         0.0982050        1        95        36.9157365        1
    17         0.1205873        1        96        43.8907437        1
    18         0.1532806        1        97        44.0334123        1
    19         0.1655377        1        98        44.0891093        1
    20         0.1758296        1        99        46.4910509        1
    21         0.2225519        1       100        46.5395416        1
    22         0.2894248        1       101        46.6227016        1
    23         0.3320334        1       102        55.0777994        1
    24         0.3324492        1       103        55.6359583        1
    25         0.3898300        1       104       103.8334833        1
    26         0.4580870        1       105       138.4871549        1
    27         0.5081833        1       106       138.6221043        1
    28         0.5926984        1       107       149.4601928        1
    29         0.6644333        1       108         0.1174949        2
    30         0.6812314        1       109         0.1926231        2
    31         0.7507970        1       110         0.2508432        2
    32         0.7650944        1       111         0.3782727        2
    33         0.8263762        1       112         0.4246570        2
    34         0.8440039        1       113         0.6170319        2
    35         0.9018293        1       114         0.7456083        2
    36         0.9394388        1       115         0.7729366        2
    37         0.9610114        1       116         0.8513511        2
    38         1.0139654        1       117         0.8996176        2
    39         1.0265872        1       118         0.9403104        2
    40         1.1125778        1       119         0.9541635        2
    41         1.1326184        1       120         1.1210964        2
    42         1.2273629        1       121         1.1788749        2
    43         1.2707834        1       122         1.3475770        2
    44         1.4651041        1       123         1.4096520        2
    45         1.5114300        1       124         1.5252735        2
    46         1.5726520        1       125         2.1707635        2
    47         1.6297427        1       126         2.2162993        2
    48         1.7357843        1       127         2.3106022        2
    49         1.8223783        1       128         2.4397243        2
    50         2.2263282        1       129         2.4622998        2
    51         2.2723128        1       130         2.4805060        2
    52         2.3065488        1       131         2.5798734        2
    53         2.3247950        1       132         2.9005648        2
    54         2.3728106        1       133         3.0648136        2
    55         2.4394788        1       134         3.1155949        2
    56         2.5030641        1       135         3.3605645        2
    57         2.6380894        1       136         3.8694751        2
    58         2.7719068        1       137         4.0491038        2
    59         2.8725093        1       138         4.1989414        2
    60         2.9767631        1       139         4.3377147        2
    61         3.0571373        1       140         6.5993352        2
    62         3.1296579        1       141         6.6978155        2
    63         3.2107167        1       142         6.7744936        2
    64         3.2470109        1       143         7.1078040        2
    65         3.3835400        1       144         7.1852170        2
    66         3.4312005        1       145        10.3556089        2
    67         3.7994793        1       146        10.3940155        2
    68         3.9368656        1       147        12.6855077        2
    69         3.9842210        1       148        26.0561195        2
    70         4.3492848        1       149        36.9021126        2
    71         4.3724771        1       150        36.9031801        2
    72         4.7075097        1       151        36.9114459        2
    73         5.1020649        1       152        43.8817907        2
    74         5.5844712        1       153        43.9042761        2
    75         5.8820016        1       154        46.4893938        2
    76         6.6540353        1       155        46.5142627        2
    77         6.7258643        1       156        55.0250693        2
    78         6.8981724        1       157       138.2172640        2
    79         7.0831863        1
------------------------------------------------------------------------
  -104.883313051053       -20.6622346924692       -10.6032520991953     
  -8.06994787435348       -8.06770895276814       -1.36034529470590     
  -1.03249754764644      -0.625778610772252      -0.589609729303142     
 -0.444273191930666       -8.06754147658800      -0.603675648253936     
 -0.434600069541212       6.174935636092899E-003  5.980099194628099E-002
  9.820498397846340E-002  0.120587343855449       0.153280597644279     
  0.165537733014543       0.175829583114814       0.222551871766890     
  0.289424822481810       0.332033390749284       0.332449167551499     
  0.389829999581861       0.458086964391016       0.508183300558954     
  0.592698401409382       0.664433276708851       0.681231399372737     
  0.750797009277487       0.765094379506267       0.826376220126415     
  0.844003947543401       0.901829255277855       0.939438831102132     
  0.961011435716047        1.01396541250054        1.02658717655834     
   1.11257784248555        1.13261839095802        1.22736287162258     
   1.27078341491879        1.46510410038127        1.51143003169904     
   1.57265195229221        1.62974267379332        1.73578433835013     
   1.82237825686383        2.22632817102018        2.27231284240962     
   2.30654877665674        2.32479503459055        2.37281057038013     
   2.43947876473484        2.50306412015061        2.63808944103510     
   2.77190682277813        2.87250934747007        2.97676306204279     
   3.05713725882464        3.12965786966084        3.21071673851439     
   3.24701087354442        3.38354003964942        3.43120052432661     
   3.79947930241673        3.93686562268165        3.98422096955708     
   4.34928481811538        4.37247711523763        4.70750971475962     
   5.10206487248307        5.58447122745949        5.88200159311589     
   6.65403531933412        6.72586430255260        6.89817241554204     
   7.08318627953615        7.16310946125113        7.61475262096552     
   7.79916748116733        10.3585212104546        10.4414413735142     
   10.6075254440511        12.7338835925241        13.2105038092163     
   18.2684204458625        26.4488849888122        26.6329947088750     
   28.7504086493190        36.9032629071546        36.9058260363928     
   36.9115665478396        36.9157364787967        43.8907437430745     
   44.0334123322979        44.0891092848947        46.4910509051594     
   46.5395415652282        46.6227016462897        55.0777993771355     
   55.6359582864239        103.833483323001        138.487154871461     
   138.622104263753        149.460192788626       0.117494905050865     
  0.192623104763034       0.250843183996164       0.378272673506856     
  0.424656970400957       0.617031895269167       0.745608272688541     
  0.772936599756533       0.851351121970866       0.899617591347268     
  0.940310390193790       0.954163466066817        1.12109639797750     
   1.17887489688839        1.34757695812354        1.40965198281551     
   1.52527349299594        2.17076351156247        2.21629926469563     
   2.31060217103175        2.43972433128715        2.46229983009004     
   2.48050598203836        2.57987337937923        2.90056476899485     
   3.06481358558278        3.11559494555467        3.36056446710491     
   3.86947508580008        4.04910384527109        4.19894137968411     
   4.33771470839376        6.59933521485651        6.69781546746004     
   6.77449362401709        7.10780397730471        7.18521701898500     
   10.3556088599535        10.3940155261276        12.6855077126247     
   26.0561195174258        36.9021126273821        36.9031801460437     
   36.9114459281238        43.8817907248235        43.9042760897968     
   46.4893937506868        46.5142626769633        55.0250692657123     
   138.217263995382     
 @CHECKOUT-I, Total execution time (CPU/WALL):       34.77/      19.40 seconds.
--executable xvtran finished with status     0 in       19.47 seconds (walltime).
 --invoking executable--
/home/asmola/.local/bin/xintprc
 @GETMEM-I,  Allocated    3814 MB of main memory.
  Processing integrals for CCSD calculation.
  @GMOIAA-I, Processing MO integrals for spin case AA.
  @GMOIAA-I, Generation of integral list completed.
                      TYPE                NUMBER
                      ----               --------
                      PPPP              27524020
                      PPPH               9932000
                      PPHH                900748
                      PHPH                491140
                      PHHH                 89950
                      HHHH                  2356

                     TOTAL              38940214

  @FORMT2-I, Second-order MP correlation energies:
            ------------------------------------------------
            E(SCF)                  =   -534.830239404427 a.u.
            E2(AA)                  =     -0.109936093140 a.u.
            E2(AB)                  =     -0.646923980036 a.u.
            E2(TOT)                 =     -0.866796166316 a.u.
            Total MP2 energy        =   -535.697035570743 a.u.
            ------------------------------------------------
   Largest T2 amplitudes for spin case AB:
       _       _                 _       _                 _       _
   i   j   a   b             i   j   a   b             i   j   a   b
-----------------------------------------------------------------------------
[  9   9  19  19]-0.02751 [  8   8  14  14]-0.02224 [  9   9  19  15]-0.01942
[  9   9  15  19]-0.01942 [  8   8  16  16]-0.01922 [  8   8  16  14]-0.01852
[  8   8  14  16]-0.01852 [ 13  13 112 112]-0.01763 [  8   8  19  19]-0.01622
[  9   9  15  15]-0.01609 [ 10  10  26  26]-0.01573 [ 13  13 113 113]-0.01533
[  9   8  19  19] 0.01532 [  8   9  19  19] 0.01532 [  9   9  19  18] 0.01523
-----------------------------------------------------------------------------
   Norm of T2AB vector (  1799624 symmetry allowed elements):  0.3507769183.
-----------------------------------------------------------------------------
 @CHECKOUT-I, Total execution time (CPU/WALL):        7.29/      12.75 seconds.
--executable xintprc finished with status     0 in       12.90 seconds (walltime).
  calling xvcc 
 --invoking executable--
/home/asmola/.local/bin/xvcc
 @GETMEM-I,  Allocated    3814 MB of main memory.
   CCSD energy will be calculated.
   The total correlation energy is -0.866796166316 a.u.
   The total correlation energy is -0.859191468579 a.u.
  Convergence information after     1 iterations: 
  Largest element of residual vector : -0.15127443E-01.
  Largest element of DIIS residual   : -0.15127443E-01.
   The total correlation energy is -0.878280560240 a.u.
  Convergence information after     2 iterations: 
  Largest element of residual vector : -0.40881682E-02.
  Largest element of DIIS residual   : -0.34791091E-02.
   The total correlation energy is -0.877444420437 a.u.
  Convergence information after     3 iterations: 
  Largest element of residual vector :  0.35098747E-02.
  Largest element of DIIS residual   :  0.32644161E-02.
   The total correlation energy is -0.879687728454 a.u.
  Convergence information after     4 iterations: 
  Largest element of residual vector :  0.88196553E-03.
  Largest element of DIIS residual   :  0.81257524E-03.
   The total correlation energy is -0.880026317935 a.u.
  Convergence information after     5 iterations: 
  Largest element of residual vector :  0.11592996E-02.
  Largest element of DIIS residual   :  0.72618571E-03.
   The total correlation energy is -0.880051216064 a.u.
  Convergence information after     6 iterations: 
  Largest element of residual vector :  0.41030434E-03.
  Largest element of DIIS residual   :  0.22786363E-03.
   The total correlation energy is -0.880059732329 a.u.
  Convergence information after     7 iterations: 
  Largest element of residual vector :  0.26442180E-03.
  Largest element of DIIS residual   :  0.14039517E-03.
   The total correlation energy is -0.880061925219 a.u.
  Convergence information after     8 iterations: 
  Largest element of residual vector :  0.78360057E-04.
  Largest element of DIIS residual   :  0.52707109E-04.
   The total correlation energy is -0.880060769314 a.u.
  Convergence information after     9 iterations: 
  Largest element of residual vector :  0.37365186E-04.
  Largest element of DIIS residual   : -0.23343379E-04.
   The total correlation energy is -0.880063489679 a.u.
  Convergence information after    10 iterations: 
  Largest element of residual vector :  0.20221500E-04.
  Largest element of DIIS residual   :  0.11822225E-04.
   The total correlation energy is -0.880063907765 a.u.
  Convergence information after    11 iterations: 
  Largest element of residual vector :  0.80684939E-05.
  Largest element of DIIS residual   : -0.52588056E-05.
   The total correlation energy is -0.880064584890 a.u.
  Convergence information after    12 iterations: 
  Largest element of residual vector :  0.45227323E-05.
  Largest element of DIIS residual   :  0.27349500E-05.
   The total correlation energy is -0.880064893791 a.u.
  Convergence information after    13 iterations: 
  Largest element of residual vector :  0.15640414E-05.
  Largest element of DIIS residual   : -0.10652643E-05.
   The total correlation energy is -0.880064982848 a.u.
  Convergence information after    14 iterations: 
  Largest element of residual vector :  0.13619468E-05.
  Largest element of DIIS residual   :  0.88493212E-06.
   The total correlation energy is -0.880065030161 a.u.
  Convergence information after    15 iterations: 
  Largest element of residual vector :  0.55230615E-06.
  Largest element of DIIS residual   :  0.31020942E-06.
   The total correlation energy is -0.880065044788 a.u.
  Convergence information after    16 iterations: 
  Largest element of residual vector :  0.39446616E-06.
  Largest element of DIIS residual   :  0.12119075E-06.
   The total correlation energy is -0.880065053348 a.u.
  Convergence information after    17 iterations: 
  Largest element of residual vector :  0.15323186E-06.
  Largest element of DIIS residual   :  0.62044606E-07.
   The total correlation energy is -0.880065056265 a.u.
  Convergence information after    18 iterations: 
  Largest element of residual vector :  0.40590718E-07.
  Largest element of DIIS residual   :  0.39838759E-07.
   The total correlation energy is -0.880065056695 a.u.
  Convergence information after    19 iterations: 
  Largest element of residual vector :  0.31405124E-07.
  Largest element of DIIS residual   :  0.18891444E-07.
   The total correlation energy is -0.880065058309 a.u.
  Convergence information after    20 iterations: 
  Largest element of residual vector :  0.13684576E-07.
  Largest element of DIIS residual   :  0.12277002E-07.
   The total correlation energy is -0.880065058369 a.u.
  Convergence information after    21 iterations: 
  Largest element of residual vector :  0.80895002E-08.
  Largest element of DIIS residual   :  0.52469164E-08.
   The total correlation energy is -0.880065058818 a.u.
  Convergence information after    22 iterations: 
  Largest element of residual vector :  0.40876430E-08.
  Largest element of DIIS residual   :  0.28472514E-08.
   The total correlation energy is -0.880065058822 a.u.
  Convergence information after    23 iterations: 
  Largest element of residual vector :  0.18001393E-08.
  Largest element of DIIS residual   :  0.85254371E-09.
   The total correlation energy is -0.880065058852 a.u.
  Convergence information after    24 iterations: 
  Largest element of residual vector :  0.58245004E-09.
  Largest element of DIIS residual   :  0.29584614E-09.
   The total correlation energy is -0.880065058847 a.u.
  Convergence information after    25 iterations: 
  Largest element of residual vector :  0.20272981E-09.
  Largest element of DIIS residual   :  0.18252731E-09.
   The total correlation energy is -0.880065058839 a.u.
  Convergence information after    26 iterations: 
[...]
 final tnorm  0.817436605440692     
  norm contr. I: |<0|L dT/dx|0>|^2   0.000000000000000E+000
  norm contr. II: <0|[nabla(1+L)e-T][nabla e^T]|0>  0.457965436675021     
  total norm contribution  0.457965436675021     
 oo  2.062328163902399E-003
 vv  -1.45563935366217     
 vo -2.761357713951535E-002
  Correlated perturbed 1-el contribution to DBOC  -1.48119060263779       cm**-1
  SUM_I |dc_I/dx|^2 contribution to DBOC  0.745993765665745       cm**-1
 
 
  The total diagonal Born-Oppenheimer correction (DBOC) is:      0.0084039408 a.u.
  The total diagonal Born-Oppenheimer correction (DBOC) is:       1844.451799 cm-1
 
 Total CC energy including DBOC  -535.701900522512     
 First-order density matrix is being calculated  (Symmetry block 2, perturbation   3)
 Calculation of the contributions of <pq||rs> to dI(i,j)/dx required   4.9 seconds.
 Calculation of the contributions of <pq||rs> to dI(a,b)/dx required  10.7 seconds.
 Calculation of the contributions of <pq||rs> to dI(i,a)/dx required   6.3 seconds.
 First-order Z-vector equations are solved for 1 perturbation.
 Convergence reached after  23 iterations.
        U*G(pq,rs) contribution is being calculated
             (Symmetry block 2, perturbation   3)

 CCSD contribution to force constants 

        0.0000000000        0.0000000000        0.0000000000
        0.0000000000        0.0000000000        0.0000000000
        0.0000000000        0.0000000000        0.0000000000
        0.0000000000        0.0000000000        0.0000000000
        0.0000000000        0.0000000000        0.0000000000
        0.0000000000        0.0000000000        0.0000000000
        0.0000000000        0.0000000000        0.0000000000
        0.0000000000        0.0000000000        0.0000000000
        0.0000000000        0.0000000000        0.0000000000
        0.0000000000        0.0000000000        0.0000000000
        0.0000000000        0.0000000000        0.0000000000
        0.0000000000        0.0000000000        0.0000000000
        0.0000000000        0.0000000000        0.0000000000
        0.0000000000        0.0000000000        0.0000000000
        0.0000000000        0.0000000000        0.0000000000
        0.0000000000        0.0000000000        0.0000000000
        0.0000000000        0.0000000000        0.0000000000
        0.0000000000        0.0000000000        0.0000000000
        0.0000000000        0.0000000000        0.0000000000
        0.0000000000        0.0000000000        0.0000000000
        0.0000000000        0.0000000000        0.0000000000
        0.0000000000        0.0000000000        0.0000000000
        0.0000000000        0.0000000000        0.0000000000
        0.0000000000        0.0000000000        0.0000000000
        0.0000000000        0.0000000000        0.0000000000
        0.0000000000        0.0000000000        0.0000000000
        0.0777064462       -0.0147967915       -0.0629096546

 CCSD contribution to dipole derivatives 

        0.0000000000        0.0000000000        0.0000000000
        0.0000000000        0.0000000000        0.0000000000
        0.0000000000        0.0000000000        0.0000000000
        0.0000000000        0.0000000000        0.0000000000
        0.0000000000        0.0000000000        0.0000000000
        0.0000000000        0.0000000000        0.0000000000
        0.0000000000        0.0000000000        0.0000000000
        0.0000000000        0.0000000000        0.0000000000
        0.0000000000        0.0000000000        0.0171293423
 @CHECKOUT-I, Total execution time (CPU/WALL):      978.37/     269.44 seconds.
--executable xsdcc finished with status     0 in      269.61 seconds (walltime).
 --invoking executable--
/home/asmola/.local/bin/xanti
 @GETMEM-I,  Allocated    3814 MB of main memory.
 CCSD MO derivative gammas will be sorted to Mulliken order.
 @CHECKOUT-I, Total execution time (CPU/WALL):       28.99/      44.15 seconds.
--executable xanti finished with status     0 in       44.59 seconds (walltime).
 --invoking executable--
/home/asmola/.local/bin/xbcktrn
 @GETMEM-I,  Allocated    3814 MB of main memory.
 CCSD MO derivative gammas will be transformed to the AO basis.
 @CHECKOUT-I, Total execution time (CPU/WALL):       10.82/       1.80 seconds.
--executable xbcktrn finished with status     0 in        1.85 seconds (walltime).
 --invoking executable--
/home/asmola/.local/bin/xvdint
 @GETMEM-I,  Allocated    3814 MB of main memory.
 One- and two-electron integral derivatives are calculated
 for RHF-CC/MBPT hessians and dipole derivatives.
 Spherical gaussians are used.
  magnet F F
 Evaluation of 2el integral derivatives

                      Two-electron integral gradient
                      ------------------------------

                         O #1 x     0.0000000000
                         O #1 y     0.0000000000
                         H #2 x     0.0000000000
                         H #2 y     0.0000000000
                         CL#3 x     0.0000000000
                         CL#3 y     0.0000000000


 O #1       0.0000000000            0.0000000000           -0.0875855493
 H #2       0.0000000000            0.0000000000            0.0038952899
 CL#3       0.0000000000            0.0000000000            0.0836902594


 Evaluation of 2e integral derivatives required  118.31 seconds.
  contribution to Hessian
        0.0000000000        0.0000000000        0.0000000000
        0.0000000000        0.0000000000        0.0000000000
       -0.0875855493        0.0038952899        0.0836902594
 @CHECKOUT-I, Total execution time (CPU/WALL):      118.38/      20.55 seconds.
--executable xvdint finished with status     0 in       20.65 seconds (walltime).
 --invoking executable--
/home/asmola/.local/bin/xanti
 @GETMEM-I,  Allocated    3814 MB of main memory.
 CCSD MO gammas will be sorted to Mulliken order.
 @CHECKOUT-I, Total execution time (CPU/WALL):        9.27/      14.38 seconds.
--executable xanti finished with status     0 in       14.48 seconds (walltime).
 --invoking executable--
/home/asmola/.local/bin/xbcktrn
 @GETMEM-I,  Allocated    3814 MB of main memory.
 CCSD MO gammas will be transformed to the AO basis.
 @CHECKOUT-I, Total execution time (CPU/WALL):       19.95/       3.49 seconds.
--executable xbcktrn finished with status     0 in        3.57 seconds (walltime).
 --invoking executable--
/home/asmola/.local/bin/xvdint
 @GETMEM-I,  Allocated    3814 MB of main memory.
 One- and two-electron integral derivatives are calculated
 for RHF-CC/MBPT hessians and dipole derivatives.
 Spherical gaussians are used.
  magnet F F

                     Kinetic energy integral gradient
                     --------------------------------

                         O #1 x     0.2439053261
                         O #1 y    -0.1821600661
                         H #2 x     0.0929468475
                         H #2 y     0.1834218998
                         CL#3 x    -0.3368521737
                         CL#3 y    -0.0012618337


 O #1       0.2439053261           -0.1821600661            0.0000000000
 H #2       0.0929468475            0.1834218998            0.0000000000
 CL#3      -0.3368521737           -0.0012618337            0.0000000000



                   Nuclear attraction integral gradient
                   ------------------------------------

                         O #1 x   -24.7500893302
                         O #1 y     4.6993448780
                         H #2 x    -2.7131678221
                         H #2 y    -4.0268912781
                         CL#3 x    27.4632571523
                         CL#3 y    -0.6724535999


 O #1     -24.7500893302            4.6993448780            0.0000000000
 H #2      -2.7131678221           -4.0268912781            0.0000000000
 CL#3      27.4632571523           -0.6724535999            0.0000000000



                      Reorthonormalization gradient
                      -----------------------------

                         O #1 x     0.0000000000
                         O #1 y     0.0000000000
                         H #2 x     0.0000000000
                         H #2 y     0.0000000000
                         CL#3 x     0.0000000000
                         CL#3 y     0.0000000000


 O #1       0.0000000000            0.0000000000            0.0000000000
 H #2       0.0000000000            0.0000000000            0.0000000000
 CL#3       0.0000000000            0.0000000000            0.0000000000



                     Kinetic energy integral Hessian
                     -------------------------------


           Symmetry 1

           O #1 x      O #1 y      H #2 x      H #2 y      CL#3 x      CL#3 y

 O #1 x    0.314684
 O #1 y    0.117563   -0.067865
 H #2 x    0.057763   -0.132630   -0.062718
 H #2 y   -0.132630   -0.147670    0.134421    0.151721
 CL#3 x   -0.372448    0.015067    0.004954   -0.001792    0.367493
 CL#3 y    0.015067    0.215535   -0.001792   -0.004051   -0.013275   -0.211484


           Symmetry 2

           O #1 z      H #2 z      CL#3 z

 O #1 z   -0.340913
 H #2 z    0.132212   -0.131516
 CL#3 z    0.208701   -0.000696   -0.208005




           O #1 x      O #1 y      O #1 z      H #2 x      H #2 y      H #2 z

 O #1 x    0.314684
 O #1 y    0.117563   -0.067865
 O #1 z    0.000000    0.000000   -0.340913

 H #2 x    0.057763   -0.132630    0.000000   -0.062718
 H #2 y   -0.132630   -0.147670    0.000000    0.134421    0.151721
 H #2 z    0.000000    0.000000    0.132212    0.000000    0.000000   -0.131516

 CL#3 x   -0.372448    0.015067    0.000000    0.004954   -0.001792    0.000000
 CL#3 y    0.015067    0.215535    0.000000   -0.001792   -0.004051    0.000000
 CL#3 z    0.000000    0.000000    0.208701    0.000000    0.000000   -0.000696


           CL#3 x      CL#3 y      CL#3 z

 CL#3 x    0.367493
 CL#3 y   -0.013275   -0.211484
 CL#3 z    0.000000    0.000000   -0.208005




                   Nuclear attraction integral Hessian
                   -----------------------------------


           Symmetry 1

           O #1 x      O #1 y      H #2 x      H #2 y      CL#3 x      CL#3 y

 O #1 x  -12.636159
 O #1 y   -0.039901    9.317986
 H #2 x   -1.569689    1.561035    1.312688
 H #2 y    1.558077    0.902637   -2.081278   -1.129583
 CL#3 x   14.205848   -1.521134    0.257001    0.523200  -14.462849
 CL#3 y   -1.518176  -10.220622    0.520242    0.226946    0.997934    9.993676


           Symmetry 2

           O #1 z      H #2 z      CL#3 z

 O #1 z   12.126700
 H #2 z   -2.418819    2.651666
 CL#3 z   -9.707881   -0.232847    9.940728




           O #1 x      O #1 y      O #1 z      H #2 x      H #2 y      H #2 z

 O #1 x  -12.636159
 O #1 y   -0.039901    9.317986
 O #1 z    0.000000    0.000000   12.126700

 H #2 x   -1.569689    1.561035    0.000000    1.312688
 H #2 y    1.558077    0.902637    0.000000   -2.081278   -1.129583
 H #2 z    0.000000    0.000000   -2.418819    0.000000    0.000000    2.651666

 CL#3 x   14.205848   -1.521134    0.000000    0.257001    0.523200    0.000000
 CL#3 y   -1.518176  -10.220622    0.000000    0.520242    0.226946    0.000000
 CL#3 z    0.000000    0.000000   -9.707881    0.000000    0.000000   -0.232847


           CL#3 x      CL#3 y      CL#3 z

 CL#3 x  -14.462849
 CL#3 y    0.997934    9.993676
 CL#3 z    0.000000    0.000000    9.940728




                Highest order reorthonormalization Hessian
                ------------------------------------------


           Symmetry 1

           O #1 x      O #1 y      H #2 x      H #2 y      CL#3 x      CL#3 y

 O #1 x    0.000000
 O #1 y    0.000000    0.000000
 H #2 x    0.000000    0.000000    0.000000
 H #2 y    0.000000    0.000000    0.000000    0.000000
 CL#3 x    0.000000    0.000000    0.000000    0.000000    0.000000
 CL#3 y    0.000000    0.000000    0.000000    0.000000    0.000000    0.000000


           Symmetry 2

           O #1 z      H #2 z      CL#3 z

 O #1 z    0.000000
 H #2 z    0.000000    0.000000
 CL#3 z    0.000000    0.000000    0.000000




           O #1 x      O #1 y      O #1 z      H #2 x      H #2 y      H #2 z


           CL#3 x      CL#3 y      CL#3 z




                Electronic contributions to dipole moment
                -----------------------------------------

                               au             Debye

                    x      2.81739624      7.16110820
                    y      0.44599134      1.13359711

  Conversion factor used: 1 a.u. =   2.54174691 Debye 



   Electronic contributions to static part of dipole moment derivatives
   --------------------------------------------------------------------


                     Total dipole moment derivatives
                     -------------------------------


           Symmetry 1
                              Ex             Ey

               O #1 x    -8.78465422    -0.08314389
               O #1 y    -0.31165997    -8.78869554
               H #2 x    -0.45553795     0.08571138
               H #2 y     0.36520722    -0.37686733
               CL#3 x   -16.75980783    -0.00256749
               CL#3 y    -0.05354725   -16.83443713

           Symmetry 2
                              Ez

               O #1 z    -8.42306317
               H #2 z    -0.71001674
               CL#3 z   -16.86692008



                       Ex          Ey          Ez

      O #1    x   -8.784654   -0.083144    0.000000
      O #1    y   -0.311660   -8.788696    0.000000
      O #1    z    0.000000    0.000000   -8.423063

      H #2    x   -0.455538    0.085711    0.000000
      H #2    y    0.365207   -0.376867    0.000000
      H #2    z    0.000000    0.000000   -0.710017

      CL#3    x  -16.759808   -0.002567    0.000000
      CL#3    y   -0.053547  -16.834437    0.000000
      CL#3    z    0.000000    0.000000  -16.866920

 Evaluation of 1e integral derivatives required    1.57 seconds.
 Evaluation of 2el integral derivatives

                      Two-electron integral gradient
                      ------------------------------

                         O #1 x    11.4453697848
                         O #1 y    -2.3539978192
                         H #2 x     1.4323171385
                         H #2 y     2.1661892211
                         CL#3 x   -12.8776869233
                         CL#3 y     0.1878085981


 O #1      11.4453697848           -2.3539978192            0.0000000000
 H #2       1.4323171385            2.1661892211            0.0000000000
 CL#3     -12.8776869233            0.1878085981            0.0000000000


 Evaluation of 2e integral derivatives required  297.18 seconds.

                            Molecular gradient
                            ------------------

                         O #1 x    -0.0473561363
                         O #1 y     0.2271824432
                         H #2 x    -0.1086388938
                         H #2 y    -0.2349929537
                         CL#3 x     0.1559950301
                         CL#3 y     0.0078105105


 O #1      -0.0473561363            0.2271824432            0.0000000000
 H #2      -0.1086388938           -0.2349929537            0.0000000000
 CL#3       0.1559950301            0.0078105105            0.0000000000


  Molecular gradient norm 0.381E+00

                            Molecular hessian
                            -----------------


           Symmetry 1

           O #1 x      O #1 y      H #2 x      H #2 y      CL#3 x      CL#3 y

 O #1 x    2.065782
 O #1 y    1.214056    4.361654
 H #2 x   -0.291684   -1.927516    0.403303
 H #2 y   -1.565141   -4.893005    1.604027    4.863553
 CL#3 x   -1.774098    0.611816   -0.049252    0.026634    1.823351
 CL#3 y    0.351085    0.531351   -0.012726    0.035499   -0.338359   -0.566850


           Symmetry 2

           O #1 z      H #2 z      CL#3 z

 O #1 z    0.035391
 H #2 z    0.061446   -0.034573
 CL#3 z   -0.096838   -0.015321    0.112158




           O #1 x      O #1 y      O #1 z      H #2 x      H #2 y      H #2 z

 O #1 x    2.065782
 O #1 y    1.214056    4.361654
 O #1 z    0.000000    0.000000    0.035391

 H #2 x   -0.291684   -1.927516    0.000000    0.403303
 H #2 y   -1.565141   -4.893005    0.000000    1.604027    4.863553
 H #2 z    0.000000    0.000000    0.061446    0.000000    0.000000   -0.034573

 CL#3 x   -1.774098    0.611816    0.000000   -0.049252    0.026634    0.000000
 CL#3 y    0.351085    0.531351    0.000000   -0.012726    0.035499    0.000000
 CL#3 z    0.000000    0.000000   -0.096838    0.000000    0.000000   -0.015321


           CL#3 x      CL#3 y      CL#3 z

 CL#3 x    1.823351
 CL#3 y   -0.338359   -0.566850
 CL#3 z    0.000000    0.000000    0.112158




                           Total dipole moment
                           -------------------

                               au             Debye

                    x     -0.23040262     -0.58562514
                    y     -0.66144283     -1.68122028

  Conversion factor used: 1 a.u. =   2.54174691 Debye 



                     Total dipole moment derivatives
                     -------------------------------


           Symmetry 1
                              Ex             Ey

               O #1 x    -0.17465461     0.08018970
               O #1 y     0.09296628    -0.00923364
               H #2 x     0.14256096    -0.09459715
               H #2 y    -0.14742622     0.00636903
               CL#3 x     0.03209351     0.01440750
               CL#3 y     0.05445947     0.00286420

           Symmetry 2
                              Ez

               O #1 z    -0.27176817
               H #2 z     0.26629564
               CL#3 z     0.00547263



                       Ex          Ey          Ez

      O #1    x   -0.174655    0.080190    0.000000
      O #1    y    0.092966   -0.009234    0.000000
      O #1    z    0.000000    0.000000   -0.271768

      H #2    x    0.142561   -0.094597    0.000000
      H #2    y   -0.147426    0.006369    0.000000
      H #2    z    0.000000    0.000000    0.266296

      CL#3    x    0.032094    0.014407    0.000000
      CL#3    y    0.054459    0.002864    0.000000
      CL#3    z    0.000000    0.000000    0.005473

  Molecular gradient does not satisfy rotational invariance condition.
   rotational invariance in yz-plane :        0.0000E+00
   rotational invariance in xz-plane :        0.0000E+00
   rotational invariance in xy-plane :        -.7622E-02
 @CHECKOUT-I, Total execution time (CPU/WALL):      298.86/      42.66 seconds.
--executable xvdint finished with status     0 in       42.76 seconds (walltime).
 --invoking executable--
/home/asmola/.local/bin/xjoda
  @GTFLGS-I, Hessian will be transformed to curvilinear coordinates.
  @GTFLGS-I, Hessian will be transformed to curvilinear coordinates.
  igrd and ihes are                      0                     1
  gradient from JOBARC 
  -0.047356136328804   0.227182443170392   0.000000000000000
  -0.108638893766283  -0.234992953672589   0.000000000000000
   0.155995030095100   0.007810510502212   0.000000000000000
 
  @PROJFCM-I, Projecting force constant matrix onto totally symmetric subspace.
  Largest difference between matrix elements of symmetrized
  and unsymmetrized FCM :     0.0000000000E+00.
  read isotopes from ZMAT file 
 
  Summary of diagonal Born-Oppenheimer correction at the correlated level
  The total diagonal Born-Oppenheimer correction (DBOC) is:      0.0084039408 a.u.
  The total diagonal Born-Oppenheimer correction (DBOC) is:       1844.451799 cm-1
  The total diagonal Born-Oppenheimer correction (DBOC) is:            22.065 kJ/mole
  hellooooooo 
  readis is  F
 
 @CHECKOUT-I, Total execution time (CPU/WALL):        0.01/       0.05 seconds.
--executable xjoda finished with status     0 in        0.09 seconds (walltime).
  The final electronic energy is      -535.701900522511892 a.u. 
  This computation required                         2873.67 seconds (walltime).
