 --invoking executable--
/home/asmola/.local/bin/xjoda


   *************************************************************************
         <<<     CCCCCC     CCCCCC   |||     CCCCCC     CCCCCC   >>>
       <<<      CCC        CCC       |||    CCC        CCC         >>>
      <<<      CCC        CCC        |||   CCC        CCC            >>>
    <<<        CCC        CCC        |||   CCC        CCC              >>>
      <<<      CCC        CCC        |||   CCC        CCC            >>>
       <<<      CCC        CCC       |||    CCC        CCC         >>>
         <<<     CCCCCC     CCCCCC   |||     CCCCCC     CCCCCC   >>>
   *************************************************************************

     ****************************************************************
     * CFOUR Coupled-Cluster techniques for Computational Chemistry *
     ****************************************************************
 

   Department of Chemistry                Institut fuer Physikalische Chemie
   University of Florida                  Universitaet Mainz
   Gainesville, FL 32611, USA             D-55099 Mainz, Germany

   Department of Chemistry                Fakultaet fuer Chemie und Biowiss.
   Johns Hopkins University               Karlsruher Institut fuer Technologie
   Baltimore, MD 21218, USA               D-76131 Karlsruhe, Germany

   Department of Chemistry                Department of Physical Chemistry
   Southern Methodist University          Eotvos Lorand University
   Dallas, TX 75275, USA                  H-1053 Budapest, Hungary

 
                       Version 2.1
 
                     vincent.theory.phys.ucl.ac.uk                     
                     Wed 29 Jan 17:50:57 GMT 2025                      
                     integer*8 version is running
 
********************************************************************************
*                          Input from ZMAT file                                *
********************************************************************************
Hypochlorous acid DBOC calculation                                              
O                                                                               
H 1 ROH                                                                         
CL 1 ROCL 2 A                                                                   
                                                                                
ROH=0.8000000000000002                                                          
ROCL=1.683                                                                      
A=107.0                                                                         
                                                                                
                                                                                
*CFOUR(CALC=CCSD,BASIS=AUG-PCVTZ,SCF_CONV=10                                    
CC_CONV=10,DBOC=ON,MEMORY=500000000)                                            
                                                                                
%isotopes                                                                       
16                                                                              
1                                                                               
37                                                                              
********************************************************************************
  @GTFLGS-I, Hessian will be transformed to curvilinear coordinates.
    -------------------------------------------------------------------
                    CFOUR Control Parameters 
    -------------------------------------------------------------------
        External           Internal           Value            Units
          Name               Name
    -------------------------------------------------------------------
       ABCDTYPE             IABCDT         STANDARD    [  0]    ***   
       ANHARMONIC           IANHAR         OFF         [  0]    ***   
       ANH_ALGORIT          IANALG         STANDARD    [  0]    ***   
       ANH_DERIVAT          IANDER         SECOND      [  1]    ***   
       ANH_MODE             ANHMOD         VIBRATION   [  0]    ***   
       ANH_STEPSIZ          ICUBST             50000          x 10-6  
       ANH_SYMMETR          IANHSM         ABELIAN     [  0]    ***   
       AO_LADDERS           IAOLAD         SINGLEPASS  [  1]    ***   
       AV_SCF               IAVSCF         OFF         [  0]    ***   
       BASIS                IBASIS         AUG-PCVTZ   [ 51]    ***   
       BOTHVECTORS          BOTHVC         OFF         [  0]    ***   
       BOX_POTENT           IPIAB          OFF         [  0]    ***   
       BREIT                IBREIT         OFF         [  0]    ***   
       BRUCK_CONV           IBRTOL          10D-  4             ***   
       BRUECKNER            IBRKNR         OFF         [  0]    ***   
       BUFFERSIZE           IBUFFS              4096            ***   
       CACHE_RECS           ICHREC             10               ***   
       CALCLEVEL            ICLLVL         CCSD        [ 10]    ***   
       CCORBOPT             ICCORB         OFF         [  0]  x 0.01  
       CC_CONV              ICCCNV          10D- 10             ***   
       CC_EXPORDER          ICCEOR              5               ***   
       CC_EXTRAPOL          ICCEXT         DIIS        [  1]    ***   
       CC_GUESS             ICCGES         MP2         [  0]    ***   
       CC_MAXCYC            ICCCYC            100              cycles 
       CC_PROGRAM           ICCPRO         VCC         [  0]    ***   
       CHARGE               ICHRGE              0               ***   
       CHOLESKY             ICHOLE         OFF         [  0]    ***   
       CIS_CONV             ICISTL              5               ***   
       COMM_SIZE            IPSIZE            ***               ***   
       CONSTANT             ICONST         OLD         [  1]    ***   
       CONTINUUM            ICONTU         NONE        [  0]    ***   
       CONTRACTION          ICNTYP         GENERAL     [  1]    ***   
       COORDINATES          ICOORD         INTERNAL    [  0]    ***   
       CPHF_CONVER          ICPHFT          10D- 16             ***   
       CPHF_MAXCYC          ICPHFC             64              cycles 
       CUBIC                ICUBIC         OFF         [  0]    ***   
       CURVILINEAR          ICURVY         ON          [  1]    ***   
       DBOC                 IDBOC          ON          [  1]    ***   
       DCT                  IDCT           OFF         [  0]    ***   
       DERIV_LEV            IDRLVL         SECOND      [  2]    ***   
       DEVMEM_SIZE          IDVMEM          50000000           MByte  
       DIAG_MRCC            IEOMST          10D-  0             ***   
       DIFF_TYPE            IDIFTY         RELAXED     [  0]    ***   
       DIRECT               IDIRCT         OFF         [  0]    ***   
       DROPMO               IDRPMO      NONE         
       ECP                  IECP           OFF         [  0]    ***   
       EIGENVECTOR          IVEC                1               ***   
       EL_ANHARM            IELANH         OFF         [  0]    ***   
       EOMFOLLOW            IEOMSR         ENERGY      [  0]    ***   
       EOMIP                IEOMIP         OFF         [  0]    ***   
       EOMLEVEL             HBARFM         SAME        [  0]    ***   
       EOM_MRCC             IMRCCE         NEW         [  1]    ***   
       EOM_NONIT            EOMNON         OFF         [  0]    ***   
       EOM_NSING            IEOMSI          10D-  0             ***   
       EOM_NSTATES          IMRCCD         DAVIDSON    [  0]    ***   
       EOM_NTRIP            IEOMTR          10D-  0             ***   
       EOM_ORDER            IEXORD         ENERGY      [  0]    ***   
       EOM_PROPSTA          IEOMST              0               ***   
       ESTATE_CONV          IEXTOL          10D-  5             ***   
       ESTATE_DIAG          IEXDIG         ITERATIVE   [  0]    ***   
       ESTATE_LOCK          IESLOC         ON          [  1]    ***   
       ESTATE_MAXC          IEXMXC             40               ***   
       ESTATE_PROP          IEXPRP         OFF         [  0]    ***   
       EVAL_HESS            IRECAL              0            # of cyc.
       EXCITATION           IEXCIT              0               ***   
       EXCITE               IEXCIT         NONE        [  0]    ***   
       EXTERN_POT           IEXPOT         OFF         [  0]    ***   
       FCGRADNEW            IFCGNW         OFF         [  0]    ***   
       FC_FIELD             IFINFC              0             x 10-6  
       FD_CALTYPE           IFDCAL         GRADONLY    [  0]    ***   
       FD_PROJECT           IFDPRJ         OFF         [  1]    ***   
       FD_STEPSIZE          IDISFD              0            10-4 bohr
       FD_USEGROUP          IFDGRP         FULL        [  0]    ***   
       FILE_RECSIZ          IFLREC              4096           words  
       FINITE_PERT          IFIPER              0             x 10-6  
       FIXGEOM              IFIXGM         OFF         [  0]    ***   
       FOCK                 IFOCK          AO          [  1]    ***   
       FREQ_ALGORI          IVIALG         STANDARD    [  0]    ***   
       FROZEN_CORE          IFROCO         OFF         [  0]    ***   
       GAMMA_ABCD           IGABCD         STORE       [  0]    ***   
       GAMMA_ABCI           IGABCI         STORE       [  0]    ***   
       GENBAS_1             IGNBS1              0               ***   
       GENBAS_2             IGNBS2              0               ***   
       GENBAS_3             IGNBS3              0               ***   
       GENBAS_4             IGNBS4              0               ***   
       GEO_CONV             ICONTL              5              H/bohr 
       GEO_MAXCYC           IOPTCY             50               ***   
       GEO_MAXSTEP          IMXSTP            300            millibohr
       GEO_METHOD           INR            SINGLE_POINT[  5]    ***   
       GIAO                 IGIAO          OFF         [  1]    ***   
       GIMIC                IGIMIC         OFF         [  0]    ***   
       GRID                 IGRID          OFF         [  0]    ***   
       GRID_ALGO            IGALGO         SERIAL      [  0]    ***   
       GUESS                IGUESS         MOREAD      [  0]    ***   
       HBAR                 IHBAR          OFF         [  0]    ***   
       HESS_TYPE            IHESTP         SCF         [  0]    ***   
       HF2_FILE             IHF2Fl         USE         [  1]    ***   
       HFSTABILITY          ISTABL         OFF         [  0]    ***   
       INCORE               INCORE         OFF         [  0]    ***   
       INPUT_MRCC           IMRCC          ON          [  1]    ***   
       INTEGRALS            INTTYP         VMOL        [  1]    ***   
       JODA_PRINT           IJPRNT              0               ***   
       KEYWORD_OUT          IDMPKW         NO          [  0]    ***   
       LINDEP_TOL           ILINDP              8               ***   
       LINEQ_CONV           IZTACN          10D-  7           cycles  
       LINEQ_EXPOR          ILMAXD              5               ***   
       LINEQ_MAXCY          ILMAXC            100               ***   
       LINEQ_TYPE           ILTYPE         DIIS        [  1]    ***   
       LOCK_ORBOCC          ILOCOC         OFF         [  0]    ***   
       MEMORY_SIZE          IMEMSZ         500000000           words  
       MEM_UNIT             IMEMU          INTEGERWORDS[  0]    ***   
       MRCC                 IMRCCC         OFF         [  0]    ***   
       MULTIPLICTY          IMULTP              1               ***   
       NACOUPLING           IVCOUP         OFF         [  0]    ***   
       NEGEVAL              IDIE           ABORT       [  0]    ***   
       NEWNORM              INEWNO         OFF         [  0]    ***   
       NON-HF               INONHF         OFF         [  0]    ***   
       NTOP_TAMP            ITOPT2             15               ***   
       NUC_MODEL            INUCMO         POINT       [  0]    ***   
       OCCUPATION           IOCCU   ESTIMATED BY SCF 
       OPEN-SHELL           IOPEN          SPIN-ORBITAL[  0]    ***   
       OPTVIB               IOPTVB         OFF         [  0]    ***   
       ORBITALS             IORBTP         STANDARD    [  0]    ***   
       PARALLEL             IPARAL         ON          [  1]    ***   
       PARA_INT             IPINTS         ON          [  1]    ***   
       PARA_PRINT           IPPRIN              0               ***   
       PERT_ORB             IPTORB         STANDARD    [  0]    ***   
       POINTS               IGRDFD              0               ***   
       PRINT                IPRNT               0               ***   
       PROPS                IPROPS         OFF         [  0]    ***   
       PROP_INTEGR          IINTYP         INTERNAL    [  0]    ***   
       PSI                  IPSI           OFF         [  0]    ***   
       QC_ALG               IQCALG         FLM         [  0]    ***   
       QC_LINALG            IQCLIN         TRIDIAG     [  2]    ***   
       QC_MAXCYC            IQCMAX          10D-100           cycles  
       QC_MAXSCFCY          IQCMSC          10D- 15           cycles  
       QC_RTRUST            IQCRTR          10D-  0           x 10-3  
       QC_SKIPSCF           IQCSKI         OFF         [  0]    ***   
       QC_START             IQCSTA          10D-  1             ***   
       QRHFGUESS            IQGUES         OFF         [  0]    ***   
       QUARTIC              IQUART         OFF         [  0]    ***   
       RAMAN_INT            IRAMIN         OFF         [  0]    ***   
       RAMAN_ORB            IRAMRE         UNRELAXED   [  0]    ***   
       RDO                  IRDOFM         ON          [  1]    ***   
       REDUCE_REPR          REDREP         Ir          [  0]    ***   
       REFERENCE            IREFNC         RHF         [  0]    ***   
       RELATIVIST           IRELAT         OFF         [  0]    ***   
       RELAX_DENS           IRDENS         ON          [  1]    ***   
       RESET_FLAGS          IRESET         OFF         [  0]    ***   
       RESTART_CC           ICCRES         OFF         [  0]    ***   
       ROT_EVEC             ROTVEC              0               ***   
       SAVE_INTS            ISVINT         OFF         [  0]    ***   
       SCALE_ON             ISTCRT              0               ***   
       SCF_CONV             ISCFCV          10D- 10             ***   
       SCF_DAMPING          IDAMP               0             x 10-3  
       SCF_EXPORDE          IRPPOR              6               ***   
       SCF_EXPSTAR          IRPPLS              8               ***   
       SCF_EXTRAPO          IRPP           ON          [  1]    ***   
       SCF_MAXCYC           ISCFCY            150              cycles 
       SCF_NOSTOP           ISCFST         OFF         [  0]    ***   
       SCF_PRINT            ISCFPR              0               ***   
       SCF_PROG             ISCFPR         SCF         [  0]    ***   
       SD_FIELD             IFINSD              0             x 10-6  
       SOPERT               IPERSO         OFF         [  0]    ***   
       SPHERICAL            IDFGHI         ON          [  1]    ***   
       SPINORBIT            ISOCAL         OFF         [  0]    ***   
       SPINROTATIO          ISRCON         OFF         [  0]    ***   
       SPIN_FLIP            ISPFLP         OFF         [  0]    ***   
       SPIN_ORBIT           ISPORB         OFF         [  0]    ***   
       SPIN_SCAL            ISCSMP         OFF         [  0]    ***   
       STEEPSCALE           ISTPSC              1000          x 10-3  
       SUBGROUP             ISUBGP         DEFAULT     [  0]    ***   
       SUBGRPAXIS           ISBXYZ         X           [  0]    ***   
       SYMMETRY             ISYM           ON          [  0]    ***   
       SYM_CHECK            ISYMCK         OVERRIDE    [  1]    ***   
       T3_EXTRAPOL          IT3EXT         OFF         [  0]    ***   
       T4_EXTRAPOL          IT4EXP         OFF         [  0]    ***   
       TAMP_SUM             IEVERY              5               ***   
       TESTSUITE            ITESTS         OFF         [  0]    ***   
       THERMOCH             ITHERM         OFF         [  0]    ***   
       TOL_CHOLESK          ITOLCH          10D-  4             ***   
       TRANGRAD             IRESRM         OFF         [  0]    ***   
       TRANS_INV            ITRAIN         IGNORE      [  1]    ***   
       TREAT_PERT           ITREAT         SIMULTANEOUS[  0]    ***   
       TRIP_ALGORI          ITRALG         NORMAL      [  0]    ***   
       UIJ_THRESHO          IUIJTH              1               ***   
       UNITS                IUNITS         ANGSTROM    [  0]    ***   
       UNOS                 IUNOS          OFF         [  0]    ***   
       UPDATE_HESS          IHUPDT         ON          [  1]    ***   
       VIBPHASE             ISETPH         STANDARD    [  0]    ***   
       VIBRATION            IVIB           ANALYTIC    [  1]    ***   
       VIB_ALGORIT          IGEALG         STANDARD    [  0]    ***   
       VNATORB              IVNORB         OFF         [  0]    ***   
       VTRAN                IVTRAN         FULL/PARTIAL[  0]    ***   
       XFIELD               IXEFLD              0             x 10-6  
       XFORM_TOL            IXFTOL          10D- 11             ***   
       YFIELD               IYEFLD              0             x 10-6  
       ZFIELD               IZEFLD              0             x 10-6  
       ZSCALE_EXP           IZEXPS         OFF         [  0]    ***   
    -------------------------------------------------------------------
   3 entries found in Z-matrix 
   Job Title : Hypochlorous acid DBOC calculation                                              
   There are  3 unique internal coordinates.
   Of these,  0 will be optimized.
   User supplied Z-matrix: 
--------------------------------------------------------------------------------
       SYMBOL    BOND      LENGTH    ANGLE     ANGLE     DIHED     ANGLE
                  TO      (ANGST)    WRT      (DEG)      WRT      (DEG)
--------------------------------------------------------------------------------
        O    
        H          1         ROH  
        CL         1         ROCL       2        A    
                  *Initial values for internal coordinates* 
                      Name             Value
                        ROH             0.8000000000
                        ROCL            1.6830000000
                        A             107.0000000000
--------------------------------------------------------------------------------
  read isotopes from ZMAT file 
   Rotational constants (in cm-1): 
          0.4934360925             0.5014274725            30.9611623764
   Rotational constants (in MHz): 
      14792.8439763404         15032.4195541425        928192.4271721900
********************************************************************************
   The full molecular point group is C s .
   The largest Abelian subgroup of the full molecular point group is C s .
   The computational point group is C s .
********************************************************************************
--------------------------------------------------------------------------------
   Analysis of internal coordinates specified by Z-matrix 
--------------------------------------------------------------------------------
   *The nuclear repulsion energy is   52.412246983695383 a.u.
   *There are   3 degrees of freedom within the tot. symm. molecular subspace.
   *Z-matrix requests optimization of   0 coordinates.
   *The optimization is constrained.
   *The following   3 parameters can have non-zero 
    derivatives within the totally symmetric subspace:
             A    [ 3]  ROCL [ 2]  ROH  [ 1]
   *The following   0 parameters are to be optimized:

   *The following coordinates must be varied in an  unconstrained optimization.
             A    [ 3]  ROCL [ 2]  ROH  [ 1]
--------------------------------------------------------------------------------


 ----------------------------------------------------------------
         Coordinates used in calculation (QCOMP) 
 ----------------------------------------------------------------
 Z-matrix   Atomic            Coordinates (in bohr)
  Symbol    Number           X              Y              Z
 ----------------------------------------------------------------
     O         8        -2.16817374     0.09695147    -0.00000000
     H         1        -2.65655701    -1.33377010     0.00000000
     CL       17         1.01058262    -0.00558687     0.00000000
 ----------------------------------------------------------------
 
   Interatomic distance matrix (Angstroms) 
 
                 O             H             CL   
                [ 1]        [ 2]        [ 3]
  O    [ 1]     0.00000
  H    [ 2]     0.80000     0.00000
  CL   [ 3]     1.68300     2.06393     0.00000
 rotcon2
   Rotational constants (in cm-1): 
         30.9611623764             0.5014274725             0.4934360925
   Rotational constants (in MHz): 
     928192.4271721720         15032.4195541425         14792.8439763404
  ECPDATA file not present.   Using default ECPDATA. 
  @GTFLGS-I, Hessian will be transformed to curvilinear coordinates.
  There are  157 basis functions.
 @CHECKOUT-I, Total execution time (CPU/WALL):        0.19/       0.26 seconds.
--executable xjoda finished with status     0 in        0.31 seconds (walltime).
 --invoking executable--
/home/asmola/.local/bin/xvmol
 SERIAL VERSION OF MOLECULE STARTED
********************************************************************************
                    INPUT FROM MOL FILE
********************************************************************************
INTGRL        1    0    1    0    0    0    0    0    0                         
         *** CFOUR Program System (Release V0.1) ***                            
Hypochlorous acid DBOC calculation                                              
    3    1 Z          0.10E-08              0    0                              
   9999.00      3.00                                                            
          8.00000000    1    4    1    1    1    1                              
O #1  -2.168173740209045   0.096951470267869  -0.000000000000000                
   13    7                                                                      
   15330.0000000000       5.080000000000000E-004 -1.150000000000000E-004        
  0.000000000000000E+000  0.000000000000000E+000  0.000000000000000E+000        
  0.000000000000000E+000  0.000000000000000E+000                                
   2299.00000000000       3.929000000000000E-003 -8.950000000000000E-004        
  0.000000000000000E+000  0.000000000000000E+000  0.000000000000000E+000        
  0.000000000000000E+000  0.000000000000000E+000                                
   522.400000000000       2.024300000000000E-002 -4.636000000000000E-003        
  0.000000000000000E+000  0.000000000000000E+000  0.000000000000000E+000        
  0.000000000000000E+000  0.000000000000000E+000                                
   147.300000000000       7.918100000000000E-002 -1.872400000000000E-002        
  0.000000000000000E+000  0.000000000000000E+000  0.000000000000000E+000        
  0.000000000000000E+000  0.000000000000000E+000                                
   47.5500000000000       0.230687000000000      -5.846300000000000E-002        
  0.000000000000000E+000  0.000000000000000E+000  0.000000000000000E+000        
  0.000000000000000E+000  0.000000000000000E+000                                
   16.7600000000000       0.433118000000000      -0.136463000000000             
  0.000000000000000E+000  0.000000000000000E+000  0.000000000000000E+000        
  0.000000000000000E+000  0.000000000000000E+000                                
   6.20700000000000       0.350260000000000      -0.175740000000000             
  0.000000000000000E+000  0.000000000000000E+000  0.000000000000000E+000        
  0.000000000000000E+000  0.000000000000000E+000                                
   1.75200000000000       4.272800000000000E-002  0.160934000000000             
   1.00000000000000       0.000000000000000E+000  0.000000000000000E+000        
  0.000000000000000E+000  0.000000000000000E+000                                
  0.688200000000000      -8.154000000000000E-003  0.603418000000000             
  0.000000000000000E+000  0.000000000000000E+000  0.000000000000000E+000        
  0.000000000000000E+000  0.000000000000000E+000                                
  0.238400000000000       2.381000000000000E-003  0.378765000000000             
  0.000000000000000E+000   1.00000000000000       0.000000000000000E+000        
  0.000000000000000E+000  0.000000000000000E+000                                
   7.84500000000000       0.000000000000000E+000  0.000000000000000E+000        
  0.000000000000000E+000  0.000000000000000E+000   1.00000000000000             
  0.000000000000000E+000  0.000000000000000E+000                                
   21.0320000000000       0.000000000000000E+000  0.000000000000000E+000        
  0.000000000000000E+000  0.000000000000000E+000  0.000000000000000E+000        
   1.00000000000000       0.000000000000000E+000                                
  7.376000000000001E-002  0.000000000000000E+000  0.000000000000000E+000        
  0.000000000000000E+000  0.000000000000000E+000  0.000000000000000E+000        
  0.000000000000000E+000   1.00000000000000                                     
    8    6                                                                      
   34.4600000000000       1.592800000000000E-002  0.000000000000000E+000        
  0.000000000000000E+000  0.000000000000000E+000  0.000000000000000E+000        
  0.000000000000000E+000                                                        
   7.74900000000000       9.974000000000000E-002  0.000000000000000E+000        
  0.000000000000000E+000  0.000000000000000E+000  0.000000000000000E+000        
  0.000000000000000E+000                                                        
   2.28000000000000       0.310492000000000       0.000000000000000E+000        
  0.000000000000000E+000  0.000000000000000E+000  0.000000000000000E+000        
  0.000000000000000E+000                                                        
  0.715600000000000       0.491026000000000        1.00000000000000             
  0.000000000000000E+000  0.000000000000000E+000  0.000000000000000E+000        
  0.000000000000000E+000                                                        
  0.214000000000000       0.336337000000000       0.000000000000000E+000        
   1.00000000000000       0.000000000000000E+000  0.000000000000000E+000        
  0.000000000000000E+000                                                        
   15.1590000000000       0.000000000000000E+000  0.000000000000000E+000        
  0.000000000000000E+000   1.00000000000000       0.000000000000000E+000        
  0.000000000000000E+000                                                        
   57.4370000000000       0.000000000000000E+000  0.000000000000000E+000        
  0.000000000000000E+000  0.000000000000000E+000   1.00000000000000             
  0.000000000000000E+000                                                        
  5.974000000000000E-002  0.000000000000000E+000  0.000000000000000E+000        
  0.000000000000000E+000  0.000000000000000E+000  0.000000000000000E+000        
   1.00000000000000                                                             
    4    4                                                                      
   2.31400000000000        1.00000000000000       0.000000000000000E+000        
  0.000000000000000E+000  0.000000000000000E+000                                
  0.645000000000000       0.000000000000000E+000   1.00000000000000             
  0.000000000000000E+000  0.000000000000000E+000                                
   15.8580000000000       0.000000000000000E+000  0.000000000000000E+000        
   1.00000000000000       0.000000000000000E+000                                
  0.214000000000000       0.000000000000000E+000  0.000000000000000E+000        
  0.000000000000000E+000   1.00000000000000                                     
    2    2                                                                      
   1.42800000000000        1.00000000000000       0.000000000000000E+000        
  0.500000000000000       0.000000000000000E+000   1.00000000000000             
          1.00000000    1    3    1    1    1                                   
H #2  -2.656557014986474  -1.333770104177374   0.000000000000003                
    6    4                                                                      
   33.8700000000000       6.068000000000000E-003  0.000000000000000E+000        
  0.000000000000000E+000  0.000000000000000E+000                                
   5.09500000000000       4.530800000000000E-002  0.000000000000000E+000        
  0.000000000000000E+000  0.000000000000000E+000                                
   1.15900000000000       0.202822000000000       0.000000000000000E+000        
  0.000000000000000E+000  0.000000000000000E+000                                
  0.325800000000000       0.503903000000000        1.00000000000000             
  0.000000000000000E+000  0.000000000000000E+000                                
  0.102700000000000       0.383421000000000       0.000000000000000E+000        
   1.00000000000000       0.000000000000000E+000                                
  2.526000000000000E-002  0.000000000000000E+000  0.000000000000000E+000        
  0.000000000000000E+000   1.00000000000000                                     
    3    3                                                                      
   1.40700000000000        1.00000000000000       0.000000000000000E+000        
  0.000000000000000E+000                                                        
  0.388000000000000       0.000000000000000E+000   1.00000000000000             
  0.000000000000000E+000                                                        
  0.102000000000000       0.000000000000000E+000  0.000000000000000E+000        
   1.00000000000000                                                             
    2    2                                                                      
   1.05700000000000        1.00000000000000       0.000000000000000E+000        
  0.247000000000000       0.000000000000000E+000   1.00000000000000             
         17.00000000    1    4    1    1    1    1                              
CL#3   1.010582615235481  -0.005586867183687   0.000000000000000                
   18    8                                                                      
   456100.000000000       4.930000000000000E-005 -1.380000000000000E-005        
  4.200000000000000E-006  0.000000000000000E+000  0.000000000000000E+000        
  0.000000000000000E+000  0.000000000000000E+000  0.000000000000000E+000        
   68330.0000000000       3.830000000000000E-004 -1.073000000000000E-004        
  3.240000000000000E-005  0.000000000000000E+000  0.000000000000000E+000        
  0.000000000000000E+000  0.000000000000000E+000  0.000000000000000E+000        
   15550.0000000000       2.008500000000000E-003 -5.651000000000000E-004        
  1.711000000000000E-004  0.000000000000000E+000  0.000000000000000E+000        
  0.000000000000000E+000  0.000000000000000E+000  0.000000000000000E+000        
   4405.00000000000       8.385600000000000E-003 -2.361400000000000E-003        
  7.142000000000000E-004  0.000000000000000E+000  0.000000000000000E+000        
  0.000000000000000E+000  0.000000000000000E+000  0.000000000000000E+000        
   1439.00000000000       2.947030000000000E-002 -8.458900000000000E-003        
  2.567000000000000E-003  0.000000000000000E+000  0.000000000000000E+000        
  0.000000000000000E+000  0.000000000000000E+000  0.000000000000000E+000        
   520.400000000000       8.783249999999999E-002 -2.596380000000000E-002        
  7.885500000000000E-003  0.000000000000000E+000  0.000000000000000E+000        
  0.000000000000000E+000  0.000000000000000E+000  0.000000000000000E+000        
   203.100000000000       0.211473000000000      -6.863619999999999E-002        
  2.108670000000000E-002  0.000000000000000E+000  0.000000000000000E+000        
  0.000000000000000E+000  0.000000000000000E+000  0.000000000000000E+000        
   83.9600000000000       0.365364000000000      -0.141874000000000             
  4.422640000000000E-002  0.000000000000000E+000  0.000000000000000E+000        
  0.000000000000000E+000  0.000000000000000E+000  0.000000000000000E+000        
   36.2000000000000       0.340884000000000      -0.199319000000000             
  6.516700000000000E-002  0.000000000000000E+000  0.000000000000000E+000        
  0.000000000000000E+000  0.000000000000000E+000  0.000000000000000E+000        
   15.8300000000000       0.102133000000000      -1.956620000000000E-002        
  6.030100000000000E-003  0.000000000000000E+000  0.000000000000000E+000        
  0.000000000000000E+000  0.000000000000000E+000  0.000000000000000E+000        
   6.33400000000000       3.116800000000000E-003  0.499741000000000             
 -0.206495000000000       0.000000000000000E+000  0.000000000000000E+000        
  0.000000000000000E+000  0.000000000000000E+000  0.000000000000000E+000        
   2.69400000000000       1.057500000000000E-003  0.563736000000000             
 -0.405871000000000       0.000000000000000E+000  0.000000000000000E+000        
  0.000000000000000E+000  0.000000000000000E+000  0.000000000000000E+000        
  0.976800000000000      -3.780000000000000E-004  7.903250000000001E-002        
  7.595580000000000E-002   1.00000000000000       0.000000000000000E+000        
  0.000000000000000E+000  0.000000000000000E+000  0.000000000000000E+000        
  0.431300000000000       1.561000000000000E-004 -8.350900000000000E-003        
  0.725661000000000       0.000000000000000E+000  0.000000000000000E+000        
  0.000000000000000E+000  0.000000000000000E+000  0.000000000000000E+000        
  0.162500000000000      -5.140000000000000E-005  2.324600000000000E-003        
  0.394423000000000       0.000000000000000E+000   1.00000000000000             
  0.000000000000000E+000  0.000000000000000E+000  0.000000000000000E+000        
   15.0640000000000       0.000000000000000E+000  0.000000000000000E+000        
  0.000000000000000E+000  0.000000000000000E+000  0.000000000000000E+000        
   1.00000000000000       0.000000000000000E+000  0.000000000000000E+000        
   2.87400000000000       0.000000000000000E+000  0.000000000000000E+000        
  0.000000000000000E+000  0.000000000000000E+000  0.000000000000000E+000        
  0.000000000000000E+000   1.00000000000000       0.000000000000000E+000        
  5.910000000000000E-002  0.000000000000000E+000  0.000000000000000E+000        
  0.000000000000000E+000  0.000000000000000E+000  0.000000000000000E+000        
  0.000000000000000E+000  0.000000000000000E+000   1.00000000000000             
   12    7                                                                      
   663.300000000000       2.404500000000000E-003 -6.521000000000000E-004        
  0.000000000000000E+000  0.000000000000000E+000  0.000000000000000E+000        
  0.000000000000000E+000  0.000000000000000E+000                                
   156.800000000000       1.921480000000000E-002 -5.194500000000000E-003        
  0.000000000000000E+000  0.000000000000000E+000  0.000000000000000E+000        
  0.000000000000000E+000  0.000000000000000E+000                                
   49.9800000000000       8.850970000000000E-002 -2.469380000000000E-002        
  0.000000000000000E+000  0.000000000000000E+000  0.000000000000000E+000        
  0.000000000000000E+000  0.000000000000000E+000                                
   18.4200000000000       0.256020000000000      -7.281670000000000E-002        
  0.000000000000000E+000  0.000000000000000E+000  0.000000000000000E+000        
  0.000000000000000E+000  0.000000000000000E+000                                
   7.24000000000000       0.436927000000000      -0.134030000000000             
  0.000000000000000E+000  0.000000000000000E+000  0.000000000000000E+000        
  0.000000000000000E+000  0.000000000000000E+000                                
   2.92200000000000       0.350334000000000      -9.477420000000000E-002        
  0.000000000000000E+000  0.000000000000000E+000  0.000000000000000E+000        
  0.000000000000000E+000  0.000000000000000E+000                                
   1.02200000000000       5.854950000000000E-002  0.262289000000000             
   1.00000000000000       0.000000000000000E+000  0.000000000000000E+000        
  0.000000000000000E+000  0.000000000000000E+000                                
  0.381800000000000      -4.584200000000000E-003  0.564667000000000             
  0.000000000000000E+000  0.000000000000000E+000  0.000000000000000E+000        
  0.000000000000000E+000  0.000000000000000E+000                                
  0.130100000000000       2.269700000000000E-003  0.341250000000000             
  0.000000000000000E+000   1.00000000000000       0.000000000000000E+000        
  0.000000000000000E+000  0.000000000000000E+000                                
   9.48000000000000       0.000000000000000E+000  0.000000000000000E+000        
  0.000000000000000E+000  0.000000000000000E+000   1.00000000000000             
  0.000000000000000E+000  0.000000000000000E+000                                
   3.66800000000000       0.000000000000000E+000  0.000000000000000E+000        
  0.000000000000000E+000  0.000000000000000E+000  0.000000000000000E+000        
   1.00000000000000       0.000000000000000E+000                                
  4.190000000000000E-002  0.000000000000000E+000  0.000000000000000E+000        
  0.000000000000000E+000  0.000000000000000E+000  0.000000000000000E+000        
  0.000000000000000E+000   1.00000000000000                                     
    5    5                                                                      
   1.04600000000000        1.00000000000000       0.000000000000000E+000        
  0.000000000000000E+000  0.000000000000000E+000  0.000000000000000E+000        
  0.344000000000000       0.000000000000000E+000   1.00000000000000             
  0.000000000000000E+000  0.000000000000000E+000  0.000000000000000E+000        
   17.9570000000000       0.000000000000000E+000  0.000000000000000E+000        
   1.00000000000000       0.000000000000000E+000  0.000000000000000E+000        
   5.76000000000000       0.000000000000000E+000  0.000000000000000E+000        
  0.000000000000000E+000   1.00000000000000       0.000000000000000E+000        
  0.135000000000000       0.000000000000000E+000  0.000000000000000E+000        
  0.000000000000000E+000  0.000000000000000E+000   1.00000000000000             
    3    3                                                                      
  0.706000000000000        1.00000000000000       0.000000000000000E+000        
  0.000000000000000E+000                                                        
   11.7790000000000       0.000000000000000E+000   1.00000000000000             
  0.000000000000000E+000                                                        
  0.312000000000000       0.000000000000000E+000  0.000000000000000E+000        
   1.00000000000000                                                             
FINISH                                                                          
 
********************************************************************************
 ONE- AND TWO-ELECTRON INTEGRALS OVER SYMMETRY-ADAPTED AOS ARE CALCULATED.

  SPHERICAL HARMONICS ARE USED.
  
  INTEGRALS LESS THAN  0.10E-13 ARE NEGLECTED.

  NUCLEAR REPULSION ENERGY :   52.4122469837 A.U.
  @MOLECU-I, ONE ELECTRON INTEGRALS (CPU/WALL):        0.04/       0.05 SECONDS.
  @TWOEL-I,   14248851 INTEGRALS OF SYMMETRY TYPE  I I I I
  @TWOEL-I,   13493113 INTEGRALS OF SYMMETRY TYPE  I J I J
  @TWOEL-I,    6956286 INTEGRALS OF SYMMETRY TYPE  I I J J
  @TWOEL-I, TOTAL NUMBER OF 2-E INTEGRALS   34698250.
  @MOLECU-I, TWO ELECTRON INTEGRALS (CPU/WALL):       72.23/      10.89 SECONDS.
 @CHECKOUT-I, Total execution time (CPU/WALL):       72.29/      10.96 seconds.

Running with 14 threads/proc

--executable xvmol finished with status     0 in       11.00 seconds (walltime).
 --invoking executable--
/home/asmola/.local/bin/xvmol2ja
 @GETMEM-I,  Allocated    3814 MB of main memory.
 @CHECKOUT-I, Total execution time (CPU/WALL):        0.10/       0.04 seconds.
--executable xvmol2ja finished with status     0 in        0.07 seconds (walltime).
 --invoking executable--
/home/asmola/.local/bin/xvscf
  There are  157 functions in the AO basis.

  There are 2 irreducible representations.

       Irrep        # of functions
         1                104
         2                 53


  Parameters for SCF calculation: 
        SCF reference function:  RHF  
  Maximum number of iterations:  150
     Full symmetry point group: C s 
     Computational point group: C s 
        Initial density matrix: MOREAD                 
     SCF convergence tolerance: 10**(-10)
  DIIS convergence acceleration:  ON
          Latest start for DIIS:   8
                     DIIS order:   6

  Memory information:    1209746 words required.
  Fock matrices are constructed from AO integral file.
 @GETMEM-I,  Allocated       9 MB of main memory.
  Initialization and symmetry analysis required      0.001 seconds.

  @INITGES-I, Occupancies from core Hamiltonian:

          Alpha population by irrep:  10    3
           Beta population by irrep:  10    3


 total no. of electrons in initial guess :  0.000000000000000E+000
  --------------------------------------------------------------------
  Iteration         Total Energy            Largest Density Difference
  --------------------------------------------------------------------
       0            52.412246983695375              0.0000000000D+00
   current occupation vector 
    10  3
    10  3
       1          -364.582956866448285              0.1326253196D+02
   current occupation vector 
    10  3
    10  3
       2          -336.617558721027478              0.1324964238D+02
   current occupation vector 
    10  3
    10  3
       3          -420.401130719698074              0.1076345476D+02
   current occupation vector 
    10  3
    10  3
       4          -333.760643888434117              0.1076429894D+02
   current occupation vector 
    10  3
    10  3
       5          -420.047425458355576              0.1066843109D+02
   current occupation vector 
    10  3
    10  3
       6          -333.622351526874979              0.1066862413D+02
   current occupation vector 
    10  3
    10  3
       7          -420.029105489647236              0.1066302704D+02
   current occupation vector 
    10  3
    10  3
       8          -333.615395375254309              0.1066303451D+02
   current occupation vector 
    10  3
    10  3
       9          -448.237649280967617              0.9951372947D+01
   current occupation vector 
    10  3
    10  3
      10          -468.028018029377336              0.2179659930D+01
   current occupation vector 
    10  3
    10  3
      11          -481.877303410947661              0.1814916153D+01
   current occupation vector 
    10  3
    10  3
      12          -492.513170353173109              0.1165418784D+01
   current occupation vector 
    10  3
    10  3
      13          -495.633548519831720              0.2347392204D+00
   current occupation vector 
    10  3
    10  3
      14          -499.739584456551256              0.2207093857D+00
   current occupation vector 
    10  3
    10  3
      15          -507.706786395080940              0.8088692656D+01
   current occupation vector 
    10  3
    10  3
      16          -524.359205153400808              0.7812261049D+01
   current occupation vector 
    11  2
    11  2
      17          -527.577846761740261              0.5065990638D+01
   current occupation vector 
    11  2
    11  2
      18          -533.534743845395610              0.2163469878D+01
   current occupation vector 
    10  3
    10  3
      19          -534.503838013099539              0.7194773725D+00
   current occupation vector 
    10  3
    10  3
      20          -534.854861489069322              0.4559893859D+00
   current occupation vector 
    10  3
    10  3
      21          -534.890150953184047              0.2241963396D+00
   current occupation vector 
    10  3
    10  3
      22          -534.892315182395350              0.3893221495D-01
   current occupation vector 
    10  3
    10  3
      23          -534.892888048657596              0.2856013640D-01
   current occupation vector 
    10  3
    10  3
      24          -534.892969003756093              0.1116427260D-01
   current occupation vector 
    10  3
    10  3
      25          -534.892981651208856              0.4540854000D-02
   current occupation vector 
    10  3
    10  3
      26          -534.892982966575005              0.1536823501D-02
   current occupation vector 
    10  3
    10  3
      27          -534.892983158204629              0.6623834941D-03
   current occupation vector 
    10  3
    10  3
      28          -534.892983185873732              0.2876674779D-03
   current occupation vector 
    10  3
    10  3
      29          -534.892983186900096              0.6432913777D-04
   current occupation vector 
    10  3
    10  3
      30          -534.892983186950460              0.7405814163D-05
   current occupation vector 
    10  3
    10  3
      31          -534.892983186962510              0.5074011397D-05
   current occupation vector 
    10  3
    10  3
      32          -534.892983186962056              0.9218281477D-06
   current occupation vector 
    10  3
    10  3
      33          -534.892983186963193              0.5052147620D-06
   current occupation vector 
    10  3
    10  3
      34          -534.892983186962738              0.1769538696D-06
   current occupation vector 
    10  3
    10  3
      35          -534.892983186962965              0.7191271201D-07
   current occupation vector 
    10  3
    10  3
      36          -534.892983186960009              0.2855867992D-07
   current occupation vector 
    10  3
    10  3
      37          -534.892983186967399              0.9032736642D-08
   current occupation vector 
    10  3
    10  3
      38          -534.892983186963988              0.4736494003D-08
   current occupation vector 
    10  3
    10  3
      39          -534.892983186963875              0.1048742593D-08
   current occupation vector 
    10  3
    10  3
      40          -534.892983186962056              0.6601459102D-09
   current occupation vector 
    10  3
    10  3
      41          -534.892983186961942              0.1074422773D-09
   current occupation vector 
    10  3
    10  3

  SCF has converged.

 Density matrix saved to file den.dat
 total electron number:   26.0000000000000     
     E(SCF)=      -534.892983186963420              0.5331601827D-10

  Eigenvector printing suppressed.

 @PUTMOS-I, Writing converged MOs to NEWMOS. 
 @PUTMOS-I, Symmetry   1 Full Blocks 26 Partial Blocksize   0
 @PUTMOS-I, Symmetry   2 Full Blocks 13 Partial Blocksize   1
 @PUTFOCK-I, Writing converged Fock matrix to NEWFOCK. 
 @PUTFOCK-I, Symmetry   1 Full Blocks 26 Partial Blocksize   0
 @PUTFOCK-I, Symmetry   2 Full Blocks 13 Partial Blocksize   1


 
  ORBITAL EIGENVALUES (ALPHA)  (1H = 27.2113834 eV)

       MO #        E(hartree)               E(eV)           FULLSYM    COMPSYM
       ----   --------------------   --------------------   -------   ---------
    1     1        -104.8967209136       -2854.3848901824     A'        A'  (1)
    2     2         -20.6241459114        -561.2115416933     A'        A'  (1)
    3     3         -10.6164614657        -288.8886032938     A'        A'  (1)
    4     4          -8.0831902077        -219.9547878361     A'        A'  (1)
    5     5          -8.0808140251        -219.8901286210     A'        A'  (1)
    6   105          -8.0806609156        -219.8859623004     A''       A'' (2)
    7     6          -1.4626205873         -39.7999295702     A'        A'  (1)
    8     7          -1.0846563562         -29.5149999657     A'        A'  (1)
    9     8          -0.7629028945         -20.7596431581     A'        A'  (1)
   10   106          -0.6209729169         -16.8975321217     A''       A'' (2)
   11     9          -0.6128141620         -16.6755211139     A'        A'  (1)
   12    10          -0.4749695719         -12.9245791233     A'        A'  (1)
   13   107          -0.4485899695         -12.2067536482     A''       A'' (2)
  +++++++++++++++++++++++++++++++++++++++++++++++++++++++++++++++++++++++++++++
   14    11           0.0312470086           0.8502743325     A'        A'  (1)
   15    12           0.0610860847           1.6622368724     A'        A'  (1)
   16    13           0.1094263996           2.9776437136     A'        A'  (1)
   17   108           0.1151085684           3.1322633865     A''       A'' (2)
   18    14           0.1396493736           3.8000526472     A'        A'  (1)
   19    15           0.1581926839           4.3046417715     A'        A'  (1)
   20    16           0.1710851156           4.6554626746     A'        A'  (1)
   21    17           0.1812921689           4.9332107163     A'        A'  (1)
   22   109           0.1837354581           4.9996959937     A''       A'' (2)
   23    18           0.2529690480           6.8836377535     A'        A'  (1)
   24   110           0.2665890038           7.2542555928     A''       A'' (2)
   25    19           0.3124710836           8.5027704566     A'        A'  (1)
   26    20           0.3200249776           8.7083223617     A'        A'  (1)
   27   111           0.3853010787          10.4845753768     A''       A'' (2)
   28    21           0.3916222074          10.6565820348     A'        A'  (1)
   29   112           0.4175128840          11.3611031598     A''       A'' (2)
   30    22           0.4382067491          11.9242118583     A'        A'  (1)
   31    23           0.4602674433          12.5245138652     A'        A'  (1)
   32    24           0.4989674558          13.5775947435     A'        A'  (1)
   33   113           0.6108301216          16.6215326307     A''       A'' (2)
   34    25           0.6184056555          16.8276733894     A'        A'  (1)
   35    26           0.6731749978          18.3180229608     A'        A'  (1)
   36    27           0.7114308566          19.3590178012     A'        A'  (1)
   37   114           0.7199083157          19.5897011926     A''       A'' (2)
   38    28           0.7203639378          19.6020992987     A'        A'  (1)
   39   115           0.7667777889          20.8650843973     A''       A'' (2)
   40    29           0.7897676125          21.4906693012     A'        A'  (1)
   41    30           0.8665830394          23.5809233333     A'        A'  (1)
   42   116           0.8780142300          23.8919818420     A''       A'' (2)
   43    31           0.9017926734          24.5390261825     A'        A'  (1)
   44   117           0.9038995313          24.5963567020     A''       A'' (2)
   45    32           0.9142746381          24.8786777093     A'        A'  (1)
   46   118           0.9258422761          25.1934491429     A''       A'' (2)
   47    33           0.9408020615          25.6005255978     A'        A'  (1)
   48    34           0.9630304425          26.2053905965     A'        A'  (1)
   49    35           1.0038651589          27.3165597208     A'        A'  (1)
   50   119           1.0230644165          27.8389980807     A''       A'' (2)
   51    36           1.0914920936          29.7010098358     A'        A'  (1)
   52   120           1.1125284831          30.2734390971     A''       A'' (2)
   53    37           1.1168099385          30.3899434204     A'        A'  (1)
   54   121           1.2336377015          33.5689884713     A''       A'' (2)
   55    38           1.2381222097          33.6910181432     A'        A'  (1)
   56    39           1.3036863538          35.4751092070     A'        A'  (1)
   57    40           1.3533774651          36.8272730869     A'        A'  (1)
   58    41           1.4042267420          38.2109522566     A'        A'  (1)
   59   122           1.4276393143          38.8480407373     A''       A'' (2)
   60   123           1.5122342096          41.1499848681     A''       A'' (2)
   61    42           1.5642671051          42.5658719367     A'        A'  (1)
   62   124           1.6145471836          43.9340624301     A''       A'' (2)
   63    43           1.6872465775          45.9123135100     A'        A'  (1)
   64    44           1.7159712518          46.6939516353     A'        A'  (1)
   65    45           1.8127455213          49.3273133854     A'        A'  (1)
   66   125           2.1701951719          59.0540128751     A''       A'' (2)
   67    46           2.1980626361          59.8123251290     A'        A'  (1)
   68    47           2.2384261319          60.9106716883     A'        A'  (1)
   69   126           2.2902727956          62.3214911323     A''       A'' (2)
   70    48           2.2906664500          62.3322030114     A'        A'  (1)
   71    49           2.3160738147          63.0235725557     A'        A'  (1)
   72   127           2.3335080636          63.4979825850     A''       A'' (2)
   73    50           2.3448739163          63.8072631624     A'        A'  (1)
   74    51           2.4397398424          66.3886962488     A'        A'  (1)
   75   128           2.4523826492          66.7327245105     A''       A'' (2)
   76    52           2.4647710484          67.0698299918     A'        A'  (1)
   77   129           2.4750591995          67.3497848158     A''       A'' (2)
   78    53           2.4878869184          67.6988447923     A'        A'  (1)
   79   130           2.5000085498          68.0286911519     A''       A'' (2)
   80    54           2.5487092395          69.3539042913     A'        A'  (1)
   81   131           2.7199085949          74.0124755889     A''       A'' (2)
   82    55           2.8172537703          76.6613724788     A'        A'  (1)
   83   132           2.8960600126          78.8057993519     A''       A'' (2)
   84    56           2.9463092511          80.1731506459     A'        A'  (1)
   85    57           2.9716566421          80.8628882215     A'        A'  (1)
   86   133           3.0510338525          83.0228519264     A''       A'' (2)
   87    58           3.0604786317          83.2798574345     A'        A'  (1)
   88    59           3.1245599761          85.0235994671     A'        A'  (1)
   89   134           3.1423907988          85.5088008200     A''       A'' (2)
   90    60           3.2674370964          88.9114835666     A'        A'  (1)
   91    61           3.3394503841          90.8710647470     A'        A'  (1)
   92   135           3.3747669434          91.8320771831     A''       A'' (2)
   93    62           3.4955111335          95.1176936324     A'        A'  (1)
   94    63           3.8453917832         104.6384301356     A'        A'  (1)
   95    64           3.8900212392         105.8528593752     A'        A'  (1)
   96   136           4.2283828183         115.0601460319     A''       A'' (2)
   97   137           4.3146688294         117.4081077607     A''       A'' (2)
   98   138           4.4031747215         119.8164755235     A''       A'' (2)
   99    65           4.5134381125         122.8168949306     A'        A'  (1)
  100    66           4.6175642266         125.6503105447     A'        A'  (1)
  101    67           4.6971505218         127.8159637354     A'        A'  (1)
  102    68           5.0265204499         136.7785751306     A'        A'  (1)
  103    69           5.6571352298         153.9384756830     A'        A'  (1)
  104   139           5.6717901225         154.3372555866     A''       A'' (2)
  105    70           5.8154065726         158.2452578729     A'        A'  (1)
  106    71           6.0856093941         165.5978504468     A'        A'  (1)
  107    72           6.2922047402         171.2195956176     A'        A'  (1)
  108   140           6.6881099017         181.9927227576     A''       A'' (2)
  109    73           6.7005747549         182.3319086552     A'        A'  (1)
  110   141           6.7517212449         183.7236754046     A''       A'' (2)
  111    74           6.8166475019         185.4904086760     A'        A'  (1)
  112   142           7.0737690309         192.4870411826     A''       A'' (2)
  113   143           7.1884817549         195.6085330963     A''       A'' (2)
  114    75           7.1944000031         195.7695768165     A'        A'  (1)
  115    76           7.6306694887         207.6410730557     A'        A'  (1)
  116   144           7.8272664652         212.9907487595     A''       A'' (2)
  117    77           7.8615599628         213.9239222694     A'        A'  (1)
  118    78           8.3280223250         226.6170084483     A'        A'  (1)
  119    79           9.5824254113         260.7510517678     A'        A'  (1)
  120    80          10.3443348330         281.4836611580     A'        A'  (1)
  121   145          10.3445078403         281.4883689276     A''       A'' (2)
  122   146          10.3822237217         282.5146702363     A''       A'' (2)
  123    81          10.4452117835         284.2286625339     A'        A'  (1)
  124    82          10.6295500364         289.2447614108     A'        A'  (1)
  125   147          12.6746149180         344.8938059798     A''       A'' (2)
  126    83          12.7307672685         346.4217891194     A'        A'  (1)
  127    84          13.2267680824         359.9186574337     A'        A'  (1)
  128    85          18.2801269777         497.4275437906     A'        A'  (1)
  129   148          26.3472924822         716.9462772863     A''       A'' (2)
  130    86          26.7006457542         726.5615086462     A'        A'  (1)
  131    87          27.4128117013         745.9405292763     A'        A'  (1)
  132    88          29.2584280205         796.1623025481     A'        A'  (1)
  133   149          36.8896741624        1003.8190671333     A''       A'' (2)
  134    89          36.8898710553        1003.8244248620     A'        A'  (1)
  135   150          36.8900866954        1003.8302927273     A''       A'' (2)
  136    90          36.8952274431        1003.9701795833     A'        A'  (1)
  137   151          36.8987963771        1004.0672952153     A''       A'' (2)
  138    91          36.8989483256        1004.0714299459     A'        A'  (1)
  139    92          36.9028444296        1004.1774483232     A'        A'  (1)
  140   152          43.9290734314        1195.3708595496     A''       A'' (2)
  141    93          43.9790235778        1196.7300721339     A'        A'  (1)
  142   153          44.0232910880        1197.9346523257     A''       A'' (2)
  143    94          44.1390139710        1201.0836320616     A'        A'  (1)
  144    95          44.6127864902        1213.9756377270     A'        A'  (1)
  145    96          46.4770521063        1264.7048841654     A'        A'  (1)
  146   154          46.4771683977        1264.7080486157     A''       A'' (2)
  147   155          46.5015786161        1265.3722844279     A''       A'' (2)
  148    97          46.5333317944        1266.2363323359     A'        A'  (1)
  149    98          46.6208334867        1268.6173744353     A'        A'  (1)
  150   156          55.0140413525        1497.0081716274     A''       A'' (2)
  151    99          55.0763409528        1498.7034299371     A'        A'  (1)
  152   100          55.6534105664        1514.4062924405     A'        A'  (1)
  153   101         103.8846211160        2826.8442545505     A'        A'  (1)
  154   157         138.4492477520        3767.3955620206     A''       A'' (2)
  155   102         138.6987995249        3774.1862109907     A'        A'  (1)
  156   103         139.2592222592        3789.4360888812     A'        A'  (1)
  157   104         150.1536276792        4085.8879316783     A'        A'  (1)


  VSCF finished.

 @CHECKOUT-I, Total execution time (CPU/WALL):       69.64/      14.12 seconds.
--executable xvscf finished with status     0 in       14.15 seconds (walltime).
 --invoking executable--
/home/asmola/.local/bin/xvtran
 @GETMEM-I,  Allocated    3814 MB of main memory.
  Full RHF integral transformation
  Transformation of IIII integrals :
  1 pass through the AO integral file was required.
    14248851 AO integrals were read.
    15933126 MO integrals were written to HF2.
  Transformation of IIJJ integrals :
  1 pass through the AO integral file was required.
     6956286 AO integrals were read.
     7813260 MO integrals were written to HF2.
  Transformation of IJIJ integrals :
  1 pass through the AO integral file was required.
    13493113 AO integrals were read.
    15193828 MO integrals were written to HF2.
  Summary of active molecular orbitals: 
------------------------------------------------------------------------
 
  Index      Eigenvalue    Symmetry    Index      Eigenvalue    Symmetry
------------------------------------------------------------------------
     1      -104.8967209        1        80         7.8615600        1
     2       -20.6241459        1        81         8.3280223        1
     3       -10.6164615        1        82         9.5824254        1
     4        -8.0831902        1        83        10.3443348        1
     5        -8.0808140        1        84        10.4452118        1
     6        -1.4626206        1        85        10.6295500        1
     7        -1.0846564        1        86        12.7307673        1
     8        -0.7629029        1        87        13.2267681        1
     9        -0.6128142        1        88        18.2801270        1
    10        -0.4749696        1        89        26.7006458        1
    11        -8.0806609        2        90        27.4128117        1
    12        -0.6209729        2        91        29.2584280        1
    13        -0.4485900        2        92        36.8898711        1
    14         0.0312470        1        93        36.8952274        1
    15         0.0610861        1        94        36.8989483        1
    16         0.1094264        1        95        36.9028444        1
    17         0.1396494        1        96        43.9790236        1
    18         0.1581927        1        97        44.1390140        1
    19         0.1710851        1        98        44.6127865        1
    20         0.1812922        1        99        46.4770521        1
    21         0.2529690        1       100        46.5333318        1
    22         0.3124711        1       101        46.6208335        1
    23         0.3200250        1       102        55.0763410        1
    24         0.3916222        1       103        55.6534106        1
    25         0.4382067        1       104       103.8846211        1
    26         0.4602674        1       105       138.6987995        1
    27         0.4989675        1       106       139.2592223        1
    28         0.6184057        1       107       150.1536277        1
    29         0.6731750        1       108         0.1151086        2
    30         0.7114309        1       109         0.1837355        2
    31         0.7203639        1       110         0.2665890        2
    32         0.7897676        1       111         0.3853011        2
    33         0.8665830        1       112         0.4175129        2
    34         0.9017927        1       113         0.6108301        2
    35         0.9142746        1       114         0.7199083        2
    36         0.9408021        1       115         0.7667778        2
    37         0.9630304        1       116         0.8780142        2
    38         1.0038652        1       117         0.9038995        2
    39         1.0914921        1       118         0.9258423        2
    40         1.1168099        1       119         1.0230644        2
    41         1.2381222        1       120         1.1125285        2
    42         1.3036864        1       121         1.2336377        2
    43         1.3533775        1       122         1.4276393        2
    44         1.4042267        1       123         1.5122342        2
    45         1.5642671        1       124         1.6145472        2
    46         1.6872466        1       125         2.1701952        2
    47         1.7159713        1       126         2.2902728        2
    48         1.8127455        1       127         2.3335081        2
    49         2.1980626        1       128         2.4523826        2
    50         2.2384261        1       129         2.4750592        2
    51         2.2906664        1       130         2.5000085        2
    52         2.3160738        1       131         2.7199086        2
    53         2.3448739        1       132         2.8960600        2
    54         2.4397398        1       133         3.0510339        2
    55         2.4647710        1       134         3.1423908        2
    56         2.4878869        1       135         3.3747669        2
    57         2.5487092        1       136         4.2283828        2
    58         2.8172538        1       137         4.3146688        2
    59         2.9463093        1       138         4.4031747        2
    60         2.9716566        1       139         5.6717901        2
    61         3.0604786        1       140         6.6881099        2
    62         3.1245600        1       141         6.7517212        2
    63         3.2674371        1       142         7.0737690        2
    64         3.3394504        1       143         7.1884818        2
    65         3.4955111        1       144         7.8272665        2
    66         3.8453918        1       145        10.3445078        2
    67         3.8900212        1       146        10.3822237        2
    68         4.5134381        1       147        12.6746149        2
    69         4.6175642        1       148        26.3472925        2
    70         4.6971505        1       149        36.8896742        2
    71         5.0265204        1       150        36.8900867        2
    72         5.6571352        1       151        36.8987964        2
    73         5.8154066        1       152        43.9290734        2
    74         6.0856094        1       153        44.0232911        2
    75         6.2922047        1       154        46.4771684        2
    76         6.7005748        1       155        46.5015786        2
    77         6.8166475        1       156        55.0140414        2
    78         7.1944000        1       157       138.4492478        2
    79         7.6306695        1
------------------------------------------------------------------------
  -104.896720913586       -20.6241459114252       -10.6164614656737     
  -8.08319020767344       -8.08081402509480       -1.46262058731670     
  -1.08465635619700      -0.762902894460718      -0.612814161955746     
 -0.474969571864836       -8.08066091562233      -0.620972916859660     
 -0.448589969452806       3.124700864945098E-002  6.108608474439021E-002
  0.109426399601033       0.139649373620836       0.158192683857968     
  0.171085115600051       0.181292168934347       0.252969048002284     
  0.312471083576551       0.320024977551665       0.391622207448190     
  0.438206749101585       0.460267443264897       0.498967455784939     
  0.618405655532275       0.673174997812496       0.711430856588350     
  0.720363937789471       0.789767612518768       0.866583039410264     
  0.901792673374727       0.914274638065430       0.940802061457302     
  0.963030442491185        1.00386515890249        1.09149209355529     
   1.11680993846271        1.23812220966408        1.30368635381502     
   1.35337746507027        1.40422674198198        1.56426710509257     
   1.68724657747438        1.71597125177119        1.81274552125227     
   2.19806263613123        2.23842613192026        2.29066644996242     
   2.31607381474224        2.34487391634927        2.43973984243635     
   2.46477104842178        2.48788691839460        2.54870923950383     
   2.81725377030156        2.94630925107214        2.97165664210677     
   3.06047863169171        3.12455997614064        3.26743709643903     
   3.33945038410020        3.49551113349208        3.84539178319197     
   3.89002123924224        4.51343811246928        4.61756422661972     
   4.69715052177111        5.02652044991425        5.65713522977182     
   5.81540657256410        6.08560939414898        6.29220474022655     
   6.70057475487128        6.81664750186984        7.19440000306895     
   7.63066948869853        7.86155996278307        8.32802232496180     
   9.58242541126467        10.3443348329712        10.4452117834586     
   10.6295500364321        12.7307672685034        13.2267680824222     
   18.2801269776907        26.7006457542386        27.4128117013085     
   29.2584280205340        36.8898710552879        36.8952274430588     
   36.8989483256443        36.9028444295545        43.9790235778271     
   44.1390139709550        44.6127864901936        46.4770521062668     
   46.5333317943671        46.6208334867425        55.0763409528482     
   55.6534105664214        103.884621115976        138.698799524859     
   139.259222259212        150.153627679153       0.115108568367113     
  0.183735458070681       0.266589003808218       0.385301078693671     
  0.417512883957996       0.610830121584464       0.719908315747106     
  0.766777788933440       0.878014229954707       0.903899531325032     
  0.925842276100861        1.02306441651625        1.11252848309994     
   1.23363770146541        1.42763931426157        1.51223420960297     
   1.61454718359278        2.17019517188937        2.29027279562381     
   2.33350806357811        2.45238264918682        2.47505919952052     
   2.50000854980024        2.71990859490518        2.89606001258529     
   3.05103385248561        3.14239079884516        3.37476694342126     
   4.22838281834258        4.31466882939526        4.40317472148564     
   5.67179012246050        6.68810990174154        6.75172124489060     
   7.07376903089184        7.18848175489328        7.82726646523748     
   10.3445078403328        10.3822237217193        12.6746149179556     
   26.3472924822458        36.8896741623699        36.8900866953828     
   36.8987963770816        43.9290734314376        44.0232910880123     
   46.4771683976823        46.5015786160977        55.0140413525395     
   138.449247751975     
 @CHECKOUT-I, Total execution time (CPU/WALL):       34.29/      19.66 seconds.
--executable xvtran finished with status     0 in       19.71 seconds (walltime).
 --invoking executable--
/home/asmola/.local/bin/xintprc
 @GETMEM-I,  Allocated    3814 MB of main memory.
  Processing integrals for CCSD calculation.
  @GMOIAA-I, Processing MO integrals for spin case AA.
  @GMOIAA-I, Generation of integral list completed.
                      TYPE                NUMBER
                      ----               --------
                      PPPP              27524020
                      PPPH               9932000
                      PPHH                900748
                      PHPH                491140
                      PHHH                 89950
                      HHHH                  2356

                     TOTAL              38940214

  @FORMT2-I, Second-order MP correlation energies:
            ------------------------------------------------
            E(SCF)                  =   -534.892983186963 a.u.
            E2(AA)                  =     -0.106452412823 a.u.
            E2(AB)                  =     -0.624780318070 a.u.
            E2(TOT)                 =     -0.837685143715 a.u.
            Total MP2 energy        =   -535.730668330678 a.u.
            ------------------------------------------------
   Largest T2 amplitudes for spin case AB:
       _       _                 _       _                 _       _
   i   j   a   b             i   j   a   b             i   j   a   b
-----------------------------------------------------------------------------
[  9   9  17  17]-0.02511 [  9   9  17  15]-0.02164 [  9   9  15  17]-0.02164
[  9   9  15  15]-0.02007 [ 13  13 112 112]-0.01784 [ 13  13 113 113]-0.01573
[ 13  13 116 116]-0.01515 [ 10  10  25  25]-0.01451 [  9   9  18  17] 0.01330
[  9   9  17  18] 0.01330 [ 13  13 117 117]-0.01298 [  9   9  20  17] 0.01274
[  9   9  17  20] 0.01274 [ 10  10 117 117]-0.01260 [ 10  10  24  24]-0.01253
-----------------------------------------------------------------------------
   Norm of T2AB vector (  1799624 symmetry allowed elements):  0.3176422683.
-----------------------------------------------------------------------------
 @CHECKOUT-I, Total execution time (CPU/WALL):        6.11/       7.17 seconds.
--executable xintprc finished with status     0 in        7.29 seconds (walltime).
  calling xvcc 
 --invoking executable--
/home/asmola/.local/bin/xvcc
 @GETMEM-I,  Allocated    3814 MB of main memory.
   CCSD energy will be calculated.
   The total correlation energy is -0.837685143715 a.u.
   The total correlation energy is -0.841627384860 a.u.
  Convergence information after     1 iterations: 
  Largest element of residual vector : -0.11532312E-01.
  Largest element of DIIS residual   : -0.11532312E-01.
   The total correlation energy is -0.853965926898 a.u.
  Convergence information after     2 iterations: 
  Largest element of residual vector : -0.31278200E-02.
  Largest element of DIIS residual   : -0.29780505E-02.
   The total correlation energy is -0.854086891302 a.u.
  Convergence information after     3 iterations: 
  Largest element of residual vector : -0.18463520E-02.
  Largest element of DIIS residual   : -0.98647923E-03.
   The total correlation energy is -0.855234284051 a.u.
  Convergence information after     4 iterations: 
  Largest element of residual vector : -0.24273397E-03.
  Largest element of DIIS residual   :  0.21719434E-03.
   The total correlation energy is -0.855335098776 a.u.
  Convergence information after     5 iterations: 
  Largest element of residual vector : -0.18453421E-03.
  Largest element of DIIS residual   : -0.10604530E-03.
   The total correlation energy is -0.855333589104 a.u.
  Convergence information after     6 iterations: 
  Largest element of residual vector : -0.68292972E-04.
  Largest element of DIIS residual   : -0.53584176E-04.
   The total correlation energy is -0.855333816271 a.u.
  Convergence information after     7 iterations: 
  Largest element of residual vector : -0.43803628E-04.
  Largest element of DIIS residual   : -0.33209951E-04.
   The total correlation energy is -0.855333451534 a.u.
  Convergence information after     8 iterations: 
  Largest element of residual vector : -0.21528492E-04.
  Largest element of DIIS residual   : -0.15768906E-04.
   The total correlation energy is -0.855333296069 a.u.
  Convergence information after     9 iterations: 
  Largest element of residual vector : -0.13354802E-04.
  Largest element of DIIS residual   : -0.84478044E-05.
   The total correlation energy is -0.855333854279 a.u.
  Convergence information after    10 iterations: 
  Largest element of residual vector : -0.70988121E-05.
  Largest element of DIIS residual   : -0.42549253E-05.
   The total correlation energy is -0.855334017110 a.u.
  Convergence information after    11 iterations: 
  Largest element of residual vector : -0.26789905E-05.
  Largest element of DIIS residual   : -0.15307239E-05.
   The total correlation energy is -0.855334115274 a.u.
  Convergence information after    12 iterations: 
  Largest element of residual vector : -0.15001105E-05.
  Largest element of DIIS residual   : -0.67160289E-06.
   The total correlation energy is -0.855334142252 a.u.
  Convergence information after    13 iterations: 
  Largest element of residual vector :  0.33140207E-06.
  Largest element of DIIS residual   : -0.32198688E-06.
   The total correlation energy is -0.855334141124 a.u.
  Convergence information after    14 iterations: 
  Largest element of residual vector : -0.21989394E-06.
  Largest element of DIIS residual   : -0.13473938E-06.
   The total correlation energy is -0.855334140620 a.u.
  Convergence information after    15 iterations: 
  Largest element of residual vector : -0.92078759E-07.
  Largest element of DIIS residual   : -0.75576242E-07.
   The total correlation energy is -0.855334139960 a.u.
  Convergence information after    16 iterations: 
  Largest element of residual vector : -0.59738550E-07.
  Largest element of DIIS residual   : -0.30446834E-07.
   The total correlation energy is -0.855334140550 a.u.
  Convergence information after    17 iterations: 
  Largest element of residual vector : -0.31911597E-07.
  Largest element of DIIS residual   : -0.24818131E-07.
   The total correlation energy is -0.855334140613 a.u.
  Convergence information after    18 iterations: 
  Largest element of residual vector : -0.17093388E-07.
  Largest element of DIIS residual   : -0.13340671E-07.
   The total correlation energy is -0.855334140739 a.u.
  Convergence information after    19 iterations: 
  Largest element of residual vector : -0.11260144E-07.
  Largest element of DIIS residual   : -0.67102759E-08.
   The total correlation energy is -0.855334140866 a.u.
  Convergence information after    20 iterations: 
  Largest element of residual vector : -0.41890815E-08.
  Largest element of DIIS residual   : -0.29888578E-08.
   The total correlation energy is -0.855334140881 a.u.
  Convergence information after    21 iterations: 
  Largest element of residual vector : -0.22769801E-08.
  Largest element of DIIS residual   : -0.15104607E-08.
   The total correlation energy is -0.855334140896 a.u.
  Convergence information after    22 iterations: 
  Largest element of residual vector : -0.10613492E-08.
  Largest element of DIIS residual   : -0.69931210E-09.
   The total correlation energy is -0.855334140892 a.u.
  Convergence information after    23 iterations: 
  Largest element of residual vector : -0.51771798E-09.
  Largest element of DIIS residual   : -0.30379008E-09.
   The total correlation energy is -0.855334140886 a.u.
  Convergence information after    24 iterations: 
  Largest element of residual vector : -0.25523569E-09.
  Largest element of DIIS residual   : -0.23515120E-09.
   The total correlation energy is -0.855334140886 a.u.
  Convergence information after    25 iterations: 
  Largest element of residual vector : -0.15895672E-09.
  Largest element of DIIS residual   : -0.13817615E-09.
   The total correlation energy is -0.855334140886 a.u.
  Convergence information after    26 iterations: 
  Largest element of residual vector : -0.10813036E-09.
  Largest element of DIIS residual   : -0.85016019E-10.
[...]
 final tnorm  0.851416885487525     
  norm contr. I: |<0|L dT/dx|0>|^2   0.000000000000000E+000
  norm contr. II: <0|[nabla(1+L)e-T][nabla e^T]|0>  0.498242055582845     
  total norm contribution  0.498242055582845     
 oo  2.124648813391291E-003
 vv  -1.58869045545500     
 vo -2.403194662306099E-002
  Correlated perturbed 1-el contribution to DBOC  -1.61059775326467       cm**-1
  SUM_I |dc_I/dx|^2 contribution to DBOC  0.811601569663961       cm**-1
 
 
  The total diagonal Born-Oppenheimer correction (DBOC) is:      0.0084344697 a.u.
  The total diagonal Born-Oppenheimer correction (DBOC) is:       1851.152123 cm-1
 
 Total CC energy including DBOC  -535.739882858175     
 First-order density matrix is being calculated  (Symmetry block 2, perturbation   3)
 Calculation of the contributions of <pq||rs> to dI(i,j)/dx required   3.8 seconds.
 Calculation of the contributions of <pq||rs> to dI(a,b)/dx required   9.8 seconds.
 Calculation of the contributions of <pq||rs> to dI(i,a)/dx required   6.0 seconds.
 First-order Z-vector equations are solved for 1 perturbation.
 Convergence reached after  23 iterations.
        U*G(pq,rs) contribution is being calculated
             (Symmetry block 2, perturbation   3)

 CCSD contribution to force constants 

        0.0000000000        0.0000000000        0.0000000000
        0.0000000000        0.0000000000        0.0000000000
        0.0000000000        0.0000000000        0.0000000000
        0.0000000000        0.0000000000        0.0000000000
        0.0000000000        0.0000000000        0.0000000000
        0.0000000000        0.0000000000        0.0000000000
        0.0000000000        0.0000000000        0.0000000000
        0.0000000000        0.0000000000        0.0000000000
        0.0000000000        0.0000000000        0.0000000000
        0.0000000000        0.0000000000        0.0000000000
        0.0000000000        0.0000000000        0.0000000000
        0.0000000000        0.0000000000        0.0000000000
        0.0000000000        0.0000000000        0.0000000000
        0.0000000000        0.0000000000        0.0000000000
        0.0000000000        0.0000000000        0.0000000000
        0.0000000000        0.0000000000        0.0000000000
        0.0000000000        0.0000000000        0.0000000000
        0.0000000000        0.0000000000        0.0000000000
        0.0000000000        0.0000000000        0.0000000000
        0.0000000000        0.0000000000        0.0000000000
        0.0000000000        0.0000000000        0.0000000000
        0.0000000000        0.0000000000        0.0000000000
        0.0000000000        0.0000000000        0.0000000000
        0.0000000000        0.0000000000        0.0000000000
        0.0000000000        0.0000000000        0.0000000000
        0.0000000000        0.0000000000        0.0000000000
       -0.0301730078        0.2161627054       -0.1859896976

 CCSD contribution to dipole derivatives 

        0.0000000000        0.0000000000        0.0000000000
        0.0000000000        0.0000000000        0.0000000000
        0.0000000000        0.0000000000        0.0000000000
        0.0000000000        0.0000000000        0.0000000000
        0.0000000000        0.0000000000        0.0000000000
        0.0000000000        0.0000000000        0.0000000000
        0.0000000000        0.0000000000        0.0000000000
        0.0000000000        0.0000000000        0.0000000000
        0.0000000000        0.0000000000        0.0114355704
 @CHECKOUT-I, Total execution time (CPU/WALL):     1102.83/     307.13 seconds.
--executable xsdcc finished with status     0 in      307.34 seconds (walltime).
 --invoking executable--
/home/asmola/.local/bin/xanti
 @GETMEM-I,  Allocated    3814 MB of main memory.
 CCSD MO derivative gammas will be sorted to Mulliken order.
 @CHECKOUT-I, Total execution time (CPU/WALL):       30.80/      46.62 seconds.
--executable xanti finished with status     0 in       47.52 seconds (walltime).
 --invoking executable--
/home/asmola/.local/bin/xbcktrn
 @GETMEM-I,  Allocated    3814 MB of main memory.
 CCSD MO derivative gammas will be transformed to the AO basis.
 @CHECKOUT-I, Total execution time (CPU/WALL):       11.05/       1.53 seconds.
--executable xbcktrn finished with status     0 in        1.59 seconds (walltime).
 --invoking executable--
/home/asmola/.local/bin/xvdint
 @GETMEM-I,  Allocated    3814 MB of main memory.
 One- and two-electron integral derivatives are calculated
 for RHF-CC/MBPT hessians and dipole derivatives.
 Spherical gaussians are used.
  magnet F F
 Evaluation of 2el integral derivatives

                      Two-electron integral gradient
                      ------------------------------

                         O #1 x     0.0000000000
                         O #1 y     0.0000000000
                         H #2 x     0.0000000000
                         H #2 y     0.0000000000
                         CL#3 x     0.0000000000
                         CL#3 y     0.0000000000


 O #1       0.0000000000            0.0000000000           -0.0899989650
 H #2       0.0000000000            0.0000000000            0.0016993207
 CL#3       0.0000000000            0.0000000000            0.0882996442


 Evaluation of 2e integral derivatives required  107.74 seconds.
  contribution to Hessian
        0.0000000000        0.0000000000        0.0000000000
        0.0000000000        0.0000000000        0.0000000000
       -0.0899989650        0.0016993207        0.0882996442
 @CHECKOUT-I, Total execution time (CPU/WALL):      107.90/      19.43 seconds.
--executable xvdint finished with status     0 in       19.54 seconds (walltime).
 --invoking executable--
/home/asmola/.local/bin/xanti
 @GETMEM-I,  Allocated    3814 MB of main memory.
 CCSD MO gammas will be sorted to Mulliken order.
 @CHECKOUT-I, Total execution time (CPU/WALL):        9.05/      13.31 seconds.
--executable xanti finished with status     0 in       13.41 seconds (walltime).
 --invoking executable--
/home/asmola/.local/bin/xbcktrn
 @GETMEM-I,  Allocated    3814 MB of main memory.
 CCSD MO gammas will be transformed to the AO basis.
 @CHECKOUT-I, Total execution time (CPU/WALL):       19.70/       3.03 seconds.
--executable xbcktrn finished with status     0 in        3.11 seconds (walltime).
 --invoking executable--
/home/asmola/.local/bin/xvdint
 @GETMEM-I,  Allocated    3814 MB of main memory.
 One- and two-electron integral derivatives are calculated
 for RHF-CC/MBPT hessians and dipole derivatives.
 Spherical gaussians are used.
  magnet F F

                     Kinetic energy integral gradient
                     --------------------------------

                         O #1 x    -0.1014998383
                         O #1 y    -0.8558878602
                         H #2 x     0.4461232323
                         H #2 y     0.8822864049
                         CL#3 x    -0.3446233941
                         CL#3 y    -0.0263985447


 O #1      -0.1014998383           -0.8558878602            0.0000000000
 H #2       0.4461232323            0.8822864049            0.0000000000
 CL#3      -0.3446233941           -0.0263985447            0.0000000000



                   Nuclear attraction integral gradient
                   ------------------------------------

                         O #1 x   -22.8438202046
                         O #1 y     6.9534234399
                         H #2 x    -5.5451266604
                         H #2 y    -7.2819185882
                         CL#3 x    28.3889468650
                         CL#3 y     0.3284951483


 O #1     -22.8438202046            6.9534234399            0.0000000000
 H #2      -5.5451266604           -7.2819185882            0.0000000000
 CL#3      28.3889468650            0.3284951483            0.0000000000



                      Reorthonormalization gradient
                      -----------------------------

                         O #1 x     0.0000000000
                         O #1 y     0.0000000000
                         H #2 x     0.0000000000
                         H #2 y     0.0000000000
                         CL#3 x     0.0000000000
                         CL#3 y     0.0000000000


 O #1       0.0000000000            0.0000000000            0.0000000000
 H #2       0.0000000000            0.0000000000            0.0000000000
 CL#3       0.0000000000            0.0000000000            0.0000000000



                     Kinetic energy integral Hessian
                     -------------------------------


           Symmetry 1

           O #1 x      O #1 y      H #2 x      H #2 y      CL#3 x      CL#3 y

 O #1 x   -0.771045
 O #1 y    0.538961   -0.394190
 H #2 x    1.146933   -0.531287   -1.159371
 H #2 y   -0.531287    0.179443    0.544009   -0.176852
 CL#3 x   -0.375888   -0.007673    0.012438   -0.012721    0.363450
 CL#3 y   -0.007673    0.214748   -0.012721   -0.002590    0.020395   -0.212158


           Symmetry 2

           O #1 z      H #2 z      CL#3 z

 O #1 z   -1.722770
 H #2 z    1.518148   -1.523651
 CL#3 z    0.204622    0.005504   -0.210125




           O #1 x      O #1 y      O #1 z      H #2 x      H #2 y      H #2 z

 O #1 x   -0.771045
 O #1 y    0.538961   -0.394190
 O #1 z    0.000000    0.000000   -1.722770

 H #2 x    1.146933   -0.531287    0.000000   -1.159371
 H #2 y   -0.531287    0.179443    0.000000    0.544009   -0.176852
 H #2 z    0.000000    0.000000    1.518148    0.000000    0.000000   -1.523651

 CL#3 x   -0.375888   -0.007673    0.000000    0.012438   -0.012721    0.000000
 CL#3 y   -0.007673    0.214748    0.000000   -0.012721   -0.002590    0.000000
 CL#3 z    0.000000    0.000000    0.204622    0.000000    0.000000    0.005504


           CL#3 x      CL#3 y      CL#3 z

 CL#3 x    0.363450
 CL#3 y    0.020395   -0.212158
 CL#3 z    0.000000    0.000000   -0.210125




                   Nuclear attraction integral Hessian
                   -----------------------------------


           Symmetry 1

           O #1 x      O #1 y      H #2 x      H #2 y      CL#3 x      CL#3 y

 O #1 x   -4.755413
 O #1 y   -2.947019   13.386648
 H #2 x   -9.672304    3.618763    9.146653
 H #2 y    3.859281   -3.002053   -4.564996    2.971168
 CL#3 x   14.427718   -0.671744    0.525651    0.705715  -14.953369
 CL#3 y   -0.912262  -10.384595    0.946232    0.030885   -0.033971   10.353710


           Symmetry 2

           O #1 z      H #2 z      CL#3 z

 O #1 z   21.998735
 H #2 z  -12.250652   12.770113
 CL#3 z   -9.748083   -0.519461   10.267544




           O #1 x      O #1 y      O #1 z      H #2 x      H #2 y      H #2 z

 O #1 x   -4.755413
 O #1 y   -2.947019   13.386648
 O #1 z    0.000000    0.000000   21.998735

 H #2 x   -9.672304    3.618763    0.000000    9.146653
 H #2 y    3.859281   -3.002053    0.000000   -4.564996    2.971168
 H #2 z    0.000000    0.000000  -12.250652    0.000000    0.000000   12.770113

 CL#3 x   14.427718   -0.671744    0.000000    0.525651    0.705715    0.000000
 CL#3 y   -0.912262  -10.384595    0.000000    0.946232    0.030885    0.000000
 CL#3 z    0.000000    0.000000   -9.748083    0.000000    0.000000   -0.519461


           CL#3 x      CL#3 y      CL#3 z

 CL#3 x  -14.953369
 CL#3 y   -0.033971   10.353710
 CL#3 z    0.000000    0.000000   10.267544




                Highest order reorthonormalization Hessian
                ------------------------------------------


           Symmetry 1

           O #1 x      O #1 y      H #2 x      H #2 y      CL#3 x      CL#3 y

 O #1 x    0.000000
 O #1 y    0.000000    0.000000
 H #2 x    0.000000    0.000000    0.000000
 H #2 y    0.000000    0.000000    0.000000    0.000000
 CL#3 x    0.000000    0.000000    0.000000    0.000000    0.000000
 CL#3 y    0.000000    0.000000    0.000000    0.000000    0.000000    0.000000


           Symmetry 2

           O #1 z      H #2 z      CL#3 z

 O #1 z    0.000000
 H #2 z    0.000000    0.000000
 CL#3 z    0.000000    0.000000    0.000000




           O #1 x      O #1 y      O #1 z      H #2 x      H #2 y      H #2 z


           CL#3 x      CL#3 y      CL#3 z




                Electronic contributions to dipole moment
                -----------------------------------------

                               au             Debye

                    x      2.73807876      6.95950325
                    y      0.14002334      0.35590388

  Conversion factor used: 1 a.u. =   2.54174691 Debye 



   Electronic contributions to static part of dipole moment derivatives
   --------------------------------------------------------------------


                     Total dipole moment derivatives
                     -------------------------------


           Symmetry 1
                              Ex             Ey

               O #1 x    -8.64632509    -0.07895945
               O #1 y    -0.04205752    -8.56558334
               H #2 x    -0.56293326     0.11817149
               H #2 y     0.09593014    -0.57539484
               CL#3 x   -16.79074165    -0.03921204
               CL#3 y    -0.05387263   -16.85902182

           Symmetry 2
                              Ez

               O #1 z    -8.19058474
               H #2 z    -0.93664539
               CL#3 z   -16.87276987



                       Ex          Ey          Ez

      O #1    x   -8.646325   -0.078959    0.000000
      O #1    y   -0.042058   -8.565583    0.000000
      O #1    z    0.000000    0.000000   -8.190585

      H #2    x   -0.562933    0.118171    0.000000
      H #2    y    0.095930   -0.575395    0.000000
      H #2    z    0.000000    0.000000   -0.936645

      CL#3    x  -16.790742   -0.039212    0.000000
      CL#3    y   -0.053873  -16.859022    0.000000
      CL#3    z    0.000000    0.000000  -16.872770

 Evaluation of 1e integral derivatives required    1.58 seconds.
 Evaluation of 2el integral derivatives

                      Two-electron integral gradient
                      ------------------------------

                         O #1 x    10.5099233132
                         O #1 y    -2.4132699443
                         H #2 x     2.8771848870
                         H #2 y     2.7561906438
                         CL#3 x   -13.3871082003
                         CL#3 y    -0.3429206995


 O #1      10.5099233132           -2.4132699443            0.0000000000
 H #2       2.8771848870            2.7561906438            0.0000000000
 CL#3     -13.3871082003           -0.3429206995            0.0000000000


 Evaluation of 2e integral derivatives required  290.36 seconds.

                            Molecular gradient
                            ------------------

                         O #1 x    -0.1278115573
                         O #1 y    -0.0618920325
                         H #2 x    -0.0402777801
                         H #2 y     0.0497936271
                         CL#3 x     0.1680893374
                         CL#3 y     0.0120984054


 O #1      -0.1278115573           -0.0618920325            0.0000000000
 H #2      -0.0402777801            0.0497936271            0.0000000000
 CL#3       0.1680893374            0.0120984054            0.0000000000


  Molecular gradient norm 0.229E+00

                            Molecular hessian
                            -----------------


           Symmetry 1

           O #1 x      O #1 y      H #2 x      H #2 y      CL#3 x      CL#3 y

 O #1 x    4.778826
 O #1 y    2.848834    7.184988
 H #2 x   -2.937200   -5.740869    2.585446
 H #2 y   -2.945471   -6.905818    3.267053    6.177000
 CL#3 x   -1.841625    0.403289   -0.428371   -0.393874    2.269996
 CL#3 y    0.096637   -0.279170   -0.344838    0.029251    0.248201    0.249919


           Symmetry 2

           O #1 z      H #2 z      CL#3 z

 O #1 z   -7.104963
 H #2 z    7.319569   -7.768239
 CL#3 z   -0.214606    0.215285   -0.000680




           O #1 x      O #1 y      O #1 z      H #2 x      H #2 y      H #2 z

 O #1 x    4.778826
 O #1 y    2.848834    7.184988
 O #1 z    0.000000    0.000000   -7.104963

 H #2 x   -2.937200   -5.740869    0.000000    2.585446
 H #2 y   -2.945471   -6.905818    0.000000    3.267053    6.177000
 H #2 z    0.000000    0.000000    7.319569    0.000000    0.000000   -7.768239

 CL#3 x   -1.841625    0.403289    0.000000   -0.428371   -0.393874    0.000000
 CL#3 y    0.096637   -0.279170    0.000000   -0.344838    0.029251    0.000000
 CL#3 z    0.000000    0.000000   -0.214606    0.000000    0.000000    0.215285


           CL#3 x      CL#3 y      CL#3 z

 CL#3 x    2.269996
 CL#3 y    0.248201    0.249919
 CL#3 z    0.000000    0.000000   -0.000680




                           Total dipole moment
                           -------------------

                               au             Debye

                    x     -0.08396371     -0.21341451
                    y     -0.51311175     -1.30420020

  Conversion factor used: 1 a.u. =   2.54174691 Debye 



                     Total dipole moment derivatives
                     -------------------------------


           Symmetry 1
                              Ex             Ey

               O #1 x    -0.51183769    -0.03763513
               O #1 y    -0.24600625    -0.20363662
               H #2 x     0.24416130     0.02956703
               H #2 y     0.17552960     0.21210123
               CL#3 x     0.26767662     0.00806805
               CL#3 y     0.07047679    -0.00846465

           Symmetry 2
                              Ez

               O #1 z    -0.38267058
               H #2 z     0.35549349
               CL#3 z     0.02717712



                       Ex          Ey          Ez

      O #1    x   -0.511838   -0.037635    0.000000
      O #1    y   -0.246006   -0.203637    0.000000
      O #1    z    0.000000    0.000000   -0.382671

      H #2    x    0.244161    0.029567    0.000000
      H #2    y    0.175530    0.212101    0.000000
      H #2    z    0.000000    0.000000    0.355493

      CL#3    x    0.267677    0.008068    0.000000
      CL#3    y    0.070477   -0.008465    0.000000
      CL#3    z    0.000000    0.000000    0.027177

  Molecular gradient does not satisfy rotational invariance condition.
   rotational invariance in yz-plane :        0.0000E+00
   rotational invariance in xz-plane :        0.0000E+00
   rotational invariance in xy-plane :        0.2625E-01
 @CHECKOUT-I, Total execution time (CPU/WALL):      291.99/      43.18 seconds.
--executable xvdint finished with status     0 in       43.28 seconds (walltime).
 --invoking executable--
/home/asmola/.local/bin/xjoda
  @GTFLGS-I, Hessian will be transformed to curvilinear coordinates.
  @GTFLGS-I, Hessian will be transformed to curvilinear coordinates.
  igrd and ihes are                      0                     1
  gradient from JOBARC 
  -0.127811557346507  -0.061892032540695   0.000000000000000
  -0.040277780063168   0.049793627112236   0.000000000000000
   0.168089337409674   0.012098405428456   0.000000000000000
 
  @PROJFCM-I, Projecting force constant matrix onto totally symmetric subspace.
  Largest difference between matrix elements of symmetrized
  and unsymmetrized FCM :     0.0000000000E+00.
  read isotopes from ZMAT file 
 
  Summary of diagonal Born-Oppenheimer correction at the correlated level
  The total diagonal Born-Oppenheimer correction (DBOC) is:      0.0084344697 a.u.
  The total diagonal Born-Oppenheimer correction (DBOC) is:       1851.152123 cm-1
  The total diagonal Born-Oppenheimer correction (DBOC) is:            22.145 kJ/mole
  hellooooooo 
  readis is  F
 
 @CHECKOUT-I, Total execution time (CPU/WALL):        0.01/       0.03 seconds.
--executable xjoda finished with status     0 in        0.07 seconds (walltime).
  The final electronic energy is      -535.739882858175065 a.u. 
  This computation required                         2898.80 seconds (walltime).
