 --invoking executable--
/home/asmola/.local/bin/xjoda


   *************************************************************************
         <<<     CCCCCC     CCCCCC   |||     CCCCCC     CCCCCC   >>>
       <<<      CCC        CCC       |||    CCC        CCC         >>>
      <<<      CCC        CCC        |||   CCC        CCC            >>>
    <<<        CCC        CCC        |||   CCC        CCC              >>>
      <<<      CCC        CCC        |||   CCC        CCC            >>>
       <<<      CCC        CCC       |||    CCC        CCC         >>>
         <<<     CCCCCC     CCCCCC   |||     CCCCCC     CCCCCC   >>>
   *************************************************************************

     ****************************************************************
     * CFOUR Coupled-Cluster techniques for Computational Chemistry *
     ****************************************************************
 

   Department of Chemistry                Institut fuer Physikalische Chemie
   University of Florida                  Universitaet Mainz
   Gainesville, FL 32611, USA             D-55099 Mainz, Germany

   Department of Chemistry                Fakultaet fuer Chemie und Biowiss.
   Johns Hopkins University               Karlsruher Institut fuer Technologie
   Baltimore, MD 21218, USA               D-76131 Karlsruhe, Germany

   Department of Chemistry                Department of Physical Chemistry
   Southern Methodist University          Eotvos Lorand University
   Dallas, TX 75275, USA                  H-1053 Budapest, Hungary

 
                       Version 2.1
 
                     vincent.theory.phys.ucl.ac.uk                     
                     Thu 30 Jan 02:15:39 GMT 2025                      
                     integer*8 version is running
 
********************************************************************************
*                          Input from ZMAT file                                *
********************************************************************************
Hypochlorous acid DBOC calculation                                              
O                                                                               
H 1 ROH                                                                         
CL 1 ROCL 2 A                                                                   
                                                                                
ROH=1.1000000000000003                                                          
ROCL=1.683                                                                      
A=107.0                                                                         
                                                                                
                                                                                
*CFOUR(CALC=CCSD,BASIS=AUG-PCVTZ,SCF_CONV=10                                    
CC_CONV=10,DBOC=ON,MEMORY=500000000)                                            
********************************************************************************
  @GTFLGS-I, Hessian will be transformed to curvilinear coordinates.
    -------------------------------------------------------------------
                    CFOUR Control Parameters 
    -------------------------------------------------------------------
        External           Internal           Value            Units
          Name               Name
    -------------------------------------------------------------------
       ABCDTYPE             IABCDT         STANDARD    [  0]    ***   
       ANHARMONIC           IANHAR         OFF         [  0]    ***   
       ANH_ALGORIT          IANALG         STANDARD    [  0]    ***   
       ANH_DERIVAT          IANDER         SECOND      [  1]    ***   
       ANH_MODE             ANHMOD         VIBRATION   [  0]    ***   
       ANH_STEPSIZ          ICUBST             50000          x 10-6  
       ANH_SYMMETR          IANHSM         ABELIAN     [  0]    ***   
       AO_LADDERS           IAOLAD         SINGLEPASS  [  1]    ***   
       AV_SCF               IAVSCF         OFF         [  0]    ***   
       BASIS                IBASIS         AUG-PCVTZ   [ 51]    ***   
       BOTHVECTORS          BOTHVC         OFF         [  0]    ***   
       BOX_POTENT           IPIAB          OFF         [  0]    ***   
       BREIT                IBREIT         OFF         [  0]    ***   
       BRUCK_CONV           IBRTOL          10D-  4             ***   
       BRUECKNER            IBRKNR         OFF         [  0]    ***   
       BUFFERSIZE           IBUFFS              4096            ***   
       CACHE_RECS           ICHREC             10               ***   
       CALCLEVEL            ICLLVL         CCSD        [ 10]    ***   
       CCORBOPT             ICCORB         OFF         [  0]  x 0.01  
       CC_CONV              ICCCNV          10D- 10             ***   
       CC_EXPORDER          ICCEOR              5               ***   
       CC_EXTRAPOL          ICCEXT         DIIS        [  1]    ***   
       CC_GUESS             ICCGES         MP2         [  0]    ***   
       CC_MAXCYC            ICCCYC            100              cycles 
       CC_PROGRAM           ICCPRO         VCC         [  0]    ***   
       CHARGE               ICHRGE              0               ***   
       CHOLESKY             ICHOLE         OFF         [  0]    ***   
       CIS_CONV             ICISTL              5               ***   
       COMM_SIZE            IPSIZE            ***               ***   
       CONSTANT             ICONST         OLD         [  1]    ***   
       CONTINUUM            ICONTU         NONE        [  0]    ***   
       CONTRACTION          ICNTYP         GENERAL     [  1]    ***   
       COORDINATES          ICOORD         INTERNAL    [  0]    ***   
       CPHF_CONVER          ICPHFT          10D- 16             ***   
       CPHF_MAXCYC          ICPHFC             64              cycles 
       CUBIC                ICUBIC         OFF         [  0]    ***   
       CURVILINEAR          ICURVY         ON          [  1]    ***   
       DBOC                 IDBOC          ON          [  1]    ***   
       DCT                  IDCT           OFF         [  0]    ***   
       DERIV_LEV            IDRLVL         SECOND      [  2]    ***   
       DEVMEM_SIZE          IDVMEM          50000000           MByte  
       DIAG_MRCC            IEOMST          10D-  0             ***   
       DIFF_TYPE            IDIFTY         RELAXED     [  0]    ***   
       DIRECT               IDIRCT         OFF         [  0]    ***   
       DROPMO               IDRPMO      NONE         
       ECP                  IECP           OFF         [  0]    ***   
       EIGENVECTOR          IVEC                1               ***   
       EL_ANHARM            IELANH         OFF         [  0]    ***   
       EOMFOLLOW            IEOMSR         ENERGY      [  0]    ***   
       EOMIP                IEOMIP         OFF         [  0]    ***   
       EOMLEVEL             HBARFM         SAME        [  0]    ***   
       EOM_MRCC             IMRCCE         NEW         [  1]    ***   
       EOM_NONIT            EOMNON         OFF         [  0]    ***   
       EOM_NSING            IEOMSI          10D-  0             ***   
       EOM_NSTATES          IMRCCD         DAVIDSON    [  0]    ***   
       EOM_NTRIP            IEOMTR          10D-  0             ***   
       EOM_ORDER            IEXORD         ENERGY      [  0]    ***   
       EOM_PROPSTA          IEOMST              0               ***   
       ESTATE_CONV          IEXTOL          10D-  5             ***   
       ESTATE_DIAG          IEXDIG         ITERATIVE   [  0]    ***   
       ESTATE_LOCK          IESLOC         ON          [  1]    ***   
       ESTATE_MAXC          IEXMXC             40               ***   
       ESTATE_PROP          IEXPRP         OFF         [  0]    ***   
       EVAL_HESS            IRECAL              0            # of cyc.
       EXCITATION           IEXCIT              0               ***   
       EXCITE               IEXCIT         NONE        [  0]    ***   
       EXTERN_POT           IEXPOT         OFF         [  0]    ***   
       FCGRADNEW            IFCGNW         OFF         [  0]    ***   
       FC_FIELD             IFINFC              0             x 10-6  
       FD_CALTYPE           IFDCAL         GRADONLY    [  0]    ***   
       FD_PROJECT           IFDPRJ         OFF         [  1]    ***   
       FD_STEPSIZE          IDISFD              0            10-4 bohr
       FD_USEGROUP          IFDGRP         FULL        [  0]    ***   
       FILE_RECSIZ          IFLREC              4096           words  
       FINITE_PERT          IFIPER              0             x 10-6  
       FIXGEOM              IFIXGM         OFF         [  0]    ***   
       FOCK                 IFOCK          AO          [  1]    ***   
       FREQ_ALGORI          IVIALG         STANDARD    [  0]    ***   
       FROZEN_CORE          IFROCO         OFF         [  0]    ***   
       GAMMA_ABCD           IGABCD         STORE       [  0]    ***   
       GAMMA_ABCI           IGABCI         STORE       [  0]    ***   
       GENBAS_1             IGNBS1              0               ***   
       GENBAS_2             IGNBS2              0               ***   
       GENBAS_3             IGNBS3              0               ***   
       GENBAS_4             IGNBS4              0               ***   
       GEO_CONV             ICONTL              5              H/bohr 
       GEO_MAXCYC           IOPTCY             50               ***   
       GEO_MAXSTEP          IMXSTP            300            millibohr
       GEO_METHOD           INR            SINGLE_POINT[  5]    ***   
       GIAO                 IGIAO          OFF         [  1]    ***   
       GIMIC                IGIMIC         OFF         [  0]    ***   
       GRID                 IGRID          OFF         [  0]    ***   
       GRID_ALGO            IGALGO         SERIAL      [  0]    ***   
       GUESS                IGUESS         MOREAD      [  0]    ***   
       HBAR                 IHBAR          OFF         [  0]    ***   
       HESS_TYPE            IHESTP         SCF         [  0]    ***   
       HF2_FILE             IHF2Fl         USE         [  1]    ***   
       HFSTABILITY          ISTABL         OFF         [  0]    ***   
       INCORE               INCORE         OFF         [  0]    ***   
       INPUT_MRCC           IMRCC          ON          [  1]    ***   
       INTEGRALS            INTTYP         VMOL        [  1]    ***   
       JODA_PRINT           IJPRNT              0               ***   
       KEYWORD_OUT          IDMPKW         NO          [  0]    ***   
       LINDEP_TOL           ILINDP              8               ***   
       LINEQ_CONV           IZTACN          10D-  7           cycles  
       LINEQ_EXPOR          ILMAXD              5               ***   
       LINEQ_MAXCY          ILMAXC            100               ***   
       LINEQ_TYPE           ILTYPE         DIIS        [  1]    ***   
       LOCK_ORBOCC          ILOCOC         OFF         [  0]    ***   
       MEMORY_SIZE          IMEMSZ         500000000           words  
       MEM_UNIT             IMEMU          INTEGERWORDS[  0]    ***   
       MRCC                 IMRCCC         OFF         [  0]    ***   
       MULTIPLICTY          IMULTP              1               ***   
       NACOUPLING           IVCOUP         OFF         [  0]    ***   
       NEGEVAL              IDIE           ABORT       [  0]    ***   
       NEWNORM              INEWNO         OFF         [  0]    ***   
       NON-HF               INONHF         OFF         [  0]    ***   
       NTOP_TAMP            ITOPT2             15               ***   
       NUC_MODEL            INUCMO         POINT       [  0]    ***   
       OCCUPATION           IOCCU   ESTIMATED BY SCF 
       OPEN-SHELL           IOPEN          SPIN-ORBITAL[  0]    ***   
       OPTVIB               IOPTVB         OFF         [  0]    ***   
       ORBITALS             IORBTP         STANDARD    [  0]    ***   
       PARALLEL             IPARAL         ON          [  1]    ***   
       PARA_INT             IPINTS         ON          [  1]    ***   
       PARA_PRINT           IPPRIN              0               ***   
       PERT_ORB             IPTORB         STANDARD    [  0]    ***   
       POINTS               IGRDFD              0               ***   
       PRINT                IPRNT               0               ***   
       PROPS                IPROPS         OFF         [  0]    ***   
       PROP_INTEGR          IINTYP         INTERNAL    [  0]    ***   
       PSI                  IPSI           OFF         [  0]    ***   
       QC_ALG               IQCALG         FLM         [  0]    ***   
       QC_LINALG            IQCLIN         TRIDIAG     [  2]    ***   
       QC_MAXCYC            IQCMAX          10D-100           cycles  
       QC_MAXSCFCY          IQCMSC          10D- 15           cycles  
       QC_RTRUST            IQCRTR          10D-  0           x 10-3  
       QC_SKIPSCF           IQCSKI         OFF         [  0]    ***   
       QC_START             IQCSTA          10D-  1             ***   
       QRHFGUESS            IQGUES         OFF         [  0]    ***   
       QUARTIC              IQUART         OFF         [  0]    ***   
       RAMAN_INT            IRAMIN         OFF         [  0]    ***   
       RAMAN_ORB            IRAMRE         UNRELAXED   [  0]    ***   
       RDO                  IRDOFM         ON          [  1]    ***   
       REDUCE_REPR          REDREP         Ir          [  0]    ***   
       REFERENCE            IREFNC         RHF         [  0]    ***   
       RELATIVIST           IRELAT         OFF         [  0]    ***   
       RELAX_DENS           IRDENS         ON          [  1]    ***   
       RESET_FLAGS          IRESET         OFF         [  0]    ***   
       RESTART_CC           ICCRES         OFF         [  0]    ***   
       ROT_EVEC             ROTVEC              0               ***   
       SAVE_INTS            ISVINT         OFF         [  0]    ***   
       SCALE_ON             ISTCRT              0               ***   
       SCF_CONV             ISCFCV          10D- 10             ***   
       SCF_DAMPING          IDAMP               0             x 10-3  
       SCF_EXPORDE          IRPPOR              6               ***   
       SCF_EXPSTAR          IRPPLS              8               ***   
       SCF_EXTRAPO          IRPP           ON          [  1]    ***   
       SCF_MAXCYC           ISCFCY            150              cycles 
       SCF_NOSTOP           ISCFST         OFF         [  0]    ***   
       SCF_PRINT            ISCFPR              0               ***   
       SCF_PROG             ISCFPR         SCF         [  0]    ***   
       SD_FIELD             IFINSD              0             x 10-6  
       SOPERT               IPERSO         OFF         [  0]    ***   
       SPHERICAL            IDFGHI         ON          [  1]    ***   
       SPINORBIT            ISOCAL         OFF         [  0]    ***   
       SPINROTATIO          ISRCON         OFF         [  0]    ***   
       SPIN_FLIP            ISPFLP         OFF         [  0]    ***   
       SPIN_ORBIT           ISPORB         OFF         [  0]    ***   
       SPIN_SCAL            ISCSMP         OFF         [  0]    ***   
       STEEPSCALE           ISTPSC              1000          x 10-3  
       SUBGROUP             ISUBGP         DEFAULT     [  0]    ***   
       SUBGRPAXIS           ISBXYZ         X           [  0]    ***   
       SYMMETRY             ISYM           ON          [  0]    ***   
       SYM_CHECK            ISYMCK         OVERRIDE    [  1]    ***   
       T3_EXTRAPOL          IT3EXT         OFF         [  0]    ***   
       T4_EXTRAPOL          IT4EXP         OFF         [  0]    ***   
       TAMP_SUM             IEVERY              5               ***   
       TESTSUITE            ITESTS         OFF         [  0]    ***   
       THERMOCH             ITHERM         OFF         [  0]    ***   
       TOL_CHOLESK          ITOLCH          10D-  4             ***   
       TRANGRAD             IRESRM         OFF         [  0]    ***   
       TRANS_INV            ITRAIN         IGNORE      [  1]    ***   
       TREAT_PERT           ITREAT         SIMULTANEOUS[  0]    ***   
       TRIP_ALGORI          ITRALG         NORMAL      [  0]    ***   
       UIJ_THRESHO          IUIJTH              1               ***   
       UNITS                IUNITS         ANGSTROM    [  0]    ***   
       UNOS                 IUNOS          OFF         [  0]    ***   
       UPDATE_HESS          IHUPDT         ON          [  1]    ***   
       VIBPHASE             ISETPH         STANDARD    [  0]    ***   
       VIBRATION            IVIB           ANALYTIC    [  1]    ***   
       VIB_ALGORIT          IGEALG         STANDARD    [  0]    ***   
       VNATORB              IVNORB         OFF         [  0]    ***   
       VTRAN                IVTRAN         FULL/PARTIAL[  0]    ***   
       XFIELD               IXEFLD              0             x 10-6  
       XFORM_TOL            IXFTOL          10D- 11             ***   
       YFIELD               IYEFLD              0             x 10-6  
       ZFIELD               IZEFLD              0             x 10-6  
       ZSCALE_EXP           IZEXPS         OFF         [  0]    ***   
    -------------------------------------------------------------------
   3 entries found in Z-matrix 
   Job Title : Hypochlorous acid DBOC calculation                                              
   There are  3 unique internal coordinates.
   Of these,  0 will be optimized.
   User supplied Z-matrix: 
--------------------------------------------------------------------------------
       SYMBOL    BOND      LENGTH    ANGLE     ANGLE     DIHED     ANGLE
                  TO      (ANGST)    WRT      (DEG)      WRT      (DEG)
--------------------------------------------------------------------------------
        O    
        H          1         ROH  
        CL         1         ROCL       2        A    
                  *Initial values for internal coordinates* 
                      Name             Value
                        ROH             1.1000000000
                        ROCL            1.6830000000
                        A             107.0000000000
--------------------------------------------------------------------------------
   Rotational constants (in cm-1): 
          0.4909867476             0.5060269108            16.5192693372
   Rotational constants (in MHz): 
      14719.4144535469         15170.3072668608        495235.3052766497
********************************************************************************
   The full molecular point group is C s .
   The largest Abelian subgroup of the full molecular point group is C s .
   The computational point group is C s .
********************************************************************************
--------------------------------------------------------------------------------
   Analysis of internal coordinates specified by Z-matrix 
--------------------------------------------------------------------------------
   *The nuclear repulsion energy is   50.584109858469141 a.u.
   *There are   3 degrees of freedom within the tot. symm. molecular subspace.
   *Z-matrix requests optimization of   0 coordinates.
   *The optimization is constrained.
   *The following   3 parameters can have non-zero 
    derivatives within the totally symmetric subspace:
             A    [ 3]  ROH  [ 1]  ROCL [ 2]
   *The following   0 parameters are to be optimized:

   *The following coordinates must be varied in an  unconstrained optimization.
             A    [ 3]  ROH  [ 1]  ROCL [ 2]
--------------------------------------------------------------------------------


 ----------------------------------------------------------------
         Coordinates used in calculation (QCOMP) 
 ----------------------------------------------------------------
 Z-matrix   Atomic            Coordinates (in bohr)
  Symbol    Number           X              Y              Z
 ----------------------------------------------------------------
     O         8        -2.12389410     0.13976876     0.00000000
     H         1        -2.82554799    -1.81693052     0.00000000
     CL       17         1.05291309    -0.01156576     0.00000000
 ----------------------------------------------------------------
 
   Interatomic distance matrix (Angstroms) 
 
                 O             H             CL   
                [ 1]        [ 2]        [ 3]
  O    [ 1]     0.00000
  H    [ 2]     1.10000     0.00000
  CL   [ 3]     1.68300     2.26385     0.00000
 rotcon2
   Rotational constants (in cm-1): 
         16.5192693372             0.5060269108             0.4909867476
   Rotational constants (in MHz): 
     495235.3052766521         15170.3072668608         14719.4144535469
  ECPDATA file not present.   Using default ECPDATA. 
  @GTFLGS-I, Hessian will be transformed to curvilinear coordinates.
  There are  157 basis functions.
 @CHECKOUT-I, Total execution time (CPU/WALL):        0.19/       0.29 seconds.
--executable xjoda finished with status     0 in        0.34 seconds (walltime).
 --invoking executable--
/home/asmola/.local/bin/xvmol
 SERIAL VERSION OF MOLECULE STARTED
********************************************************************************
                    INPUT FROM MOL FILE
********************************************************************************
INTGRL        1    0    1    0    0    0    0    0    0                         
         *** CFOUR Program System (Release V0.1) ***                            
Hypochlorous acid DBOC calculation                                              
    3    1 Z          0.10E-08              0    0                              
   9999.00      3.00                                                            
          8.00000000    1    4    1    1    1    1                              
O #1  -2.123894101061031   0.139768761265987   0.000000000000000                
   13    7                                                                      
   15330.0000000000       5.080000000000000E-004 -1.150000000000000E-004        
  0.000000000000000E+000  0.000000000000000E+000  0.000000000000000E+000        
  0.000000000000000E+000  0.000000000000000E+000                                
   2299.00000000000       3.929000000000000E-003 -8.950000000000000E-004        
  0.000000000000000E+000  0.000000000000000E+000  0.000000000000000E+000        
  0.000000000000000E+000  0.000000000000000E+000                                
   522.400000000000       2.024300000000000E-002 -4.636000000000000E-003        
  0.000000000000000E+000  0.000000000000000E+000  0.000000000000000E+000        
  0.000000000000000E+000  0.000000000000000E+000                                
   147.300000000000       7.918100000000000E-002 -1.872400000000000E-002        
  0.000000000000000E+000  0.000000000000000E+000  0.000000000000000E+000        
  0.000000000000000E+000  0.000000000000000E+000                                
   47.5500000000000       0.230687000000000      -5.846300000000000E-002        
  0.000000000000000E+000  0.000000000000000E+000  0.000000000000000E+000        
  0.000000000000000E+000  0.000000000000000E+000                                
   16.7600000000000       0.433118000000000      -0.136463000000000             
  0.000000000000000E+000  0.000000000000000E+000  0.000000000000000E+000        
  0.000000000000000E+000  0.000000000000000E+000                                
   6.20700000000000       0.350260000000000      -0.175740000000000             
  0.000000000000000E+000  0.000000000000000E+000  0.000000000000000E+000        
  0.000000000000000E+000  0.000000000000000E+000                                
   1.75200000000000       4.272800000000000E-002  0.160934000000000             
   1.00000000000000       0.000000000000000E+000  0.000000000000000E+000        
  0.000000000000000E+000  0.000000000000000E+000                                
  0.688200000000000      -8.154000000000000E-003  0.603418000000000             
  0.000000000000000E+000  0.000000000000000E+000  0.000000000000000E+000        
  0.000000000000000E+000  0.000000000000000E+000                                
  0.238400000000000       2.381000000000000E-003  0.378765000000000             
  0.000000000000000E+000   1.00000000000000       0.000000000000000E+000        
  0.000000000000000E+000  0.000000000000000E+000                                
   7.84500000000000       0.000000000000000E+000  0.000000000000000E+000        
  0.000000000000000E+000  0.000000000000000E+000   1.00000000000000             
  0.000000000000000E+000  0.000000000000000E+000                                
   21.0320000000000       0.000000000000000E+000  0.000000000000000E+000        
  0.000000000000000E+000  0.000000000000000E+000  0.000000000000000E+000        
   1.00000000000000       0.000000000000000E+000                                
  7.376000000000001E-002  0.000000000000000E+000  0.000000000000000E+000        
  0.000000000000000E+000  0.000000000000000E+000  0.000000000000000E+000        
  0.000000000000000E+000   1.00000000000000                                     
    8    6                                                                      
   34.4600000000000       1.592800000000000E-002  0.000000000000000E+000        
  0.000000000000000E+000  0.000000000000000E+000  0.000000000000000E+000        
  0.000000000000000E+000                                                        
   7.74900000000000       9.974000000000000E-002  0.000000000000000E+000        
  0.000000000000000E+000  0.000000000000000E+000  0.000000000000000E+000        
  0.000000000000000E+000                                                        
   2.28000000000000       0.310492000000000       0.000000000000000E+000        
  0.000000000000000E+000  0.000000000000000E+000  0.000000000000000E+000        
  0.000000000000000E+000                                                        
  0.715600000000000       0.491026000000000        1.00000000000000             
  0.000000000000000E+000  0.000000000000000E+000  0.000000000000000E+000        
  0.000000000000000E+000                                                        
  0.214000000000000       0.336337000000000       0.000000000000000E+000        
   1.00000000000000       0.000000000000000E+000  0.000000000000000E+000        
  0.000000000000000E+000                                                        
   15.1590000000000       0.000000000000000E+000  0.000000000000000E+000        
  0.000000000000000E+000   1.00000000000000       0.000000000000000E+000        
  0.000000000000000E+000                                                        
   57.4370000000000       0.000000000000000E+000  0.000000000000000E+000        
  0.000000000000000E+000  0.000000000000000E+000   1.00000000000000             
  0.000000000000000E+000                                                        
  5.974000000000000E-002  0.000000000000000E+000  0.000000000000000E+000        
  0.000000000000000E+000  0.000000000000000E+000  0.000000000000000E+000        
   1.00000000000000                                                             
    4    4                                                                      
   2.31400000000000        1.00000000000000       0.000000000000000E+000        
  0.000000000000000E+000  0.000000000000000E+000                                
  0.645000000000000       0.000000000000000E+000   1.00000000000000             
  0.000000000000000E+000  0.000000000000000E+000                                
   15.8580000000000       0.000000000000000E+000  0.000000000000000E+000        
   1.00000000000000       0.000000000000000E+000                                
  0.214000000000000       0.000000000000000E+000  0.000000000000000E+000        
  0.000000000000000E+000   1.00000000000000                                     
    2    2                                                                      
   1.42800000000000        1.00000000000000       0.000000000000000E+000        
  0.500000000000000       0.000000000000000E+000   1.00000000000000             
          1.00000000    1    3    1    1    1                                   
H #2  -2.825547994240949  -1.816930516832779   0.000000000000000                
    6    4                                                                      
   33.8700000000000       6.068000000000000E-003  0.000000000000000E+000        
  0.000000000000000E+000  0.000000000000000E+000                                
   5.09500000000000       4.530800000000000E-002  0.000000000000000E+000        
  0.000000000000000E+000  0.000000000000000E+000                                
   1.15900000000000       0.202822000000000       0.000000000000000E+000        
  0.000000000000000E+000  0.000000000000000E+000                                
  0.325800000000000       0.503903000000000        1.00000000000000             
  0.000000000000000E+000  0.000000000000000E+000                                
  0.102700000000000       0.383421000000000       0.000000000000000E+000        
   1.00000000000000       0.000000000000000E+000                                
  2.526000000000000E-002  0.000000000000000E+000  0.000000000000000E+000        
  0.000000000000000E+000   1.00000000000000                                     
    3    3                                                                      
   1.40700000000000        1.00000000000000       0.000000000000000E+000        
  0.000000000000000E+000                                                        
  0.388000000000000       0.000000000000000E+000   1.00000000000000             
  0.000000000000000E+000                                                        
  0.102000000000000       0.000000000000000E+000  0.000000000000000E+000        
   1.00000000000000                                                             
    2    2                                                                      
   1.05700000000000        1.00000000000000       0.000000000000000E+000        
  0.247000000000000       0.000000000000000E+000   1.00000000000000             
         17.00000000    1    4    1    1    1    1                              
CL#3   1.052913091818727  -0.011565759560304   0.000000000000000                
   18    8                                                                      
   456100.000000000       4.930000000000000E-005 -1.380000000000000E-005        
  4.200000000000000E-006  0.000000000000000E+000  0.000000000000000E+000        
  0.000000000000000E+000  0.000000000000000E+000  0.000000000000000E+000        
   68330.0000000000       3.830000000000000E-004 -1.073000000000000E-004        
  3.240000000000000E-005  0.000000000000000E+000  0.000000000000000E+000        
  0.000000000000000E+000  0.000000000000000E+000  0.000000000000000E+000        
   15550.0000000000       2.008500000000000E-003 -5.651000000000000E-004        
  1.711000000000000E-004  0.000000000000000E+000  0.000000000000000E+000        
  0.000000000000000E+000  0.000000000000000E+000  0.000000000000000E+000        
   4405.00000000000       8.385600000000000E-003 -2.361400000000000E-003        
  7.142000000000000E-004  0.000000000000000E+000  0.000000000000000E+000        
  0.000000000000000E+000  0.000000000000000E+000  0.000000000000000E+000        
   1439.00000000000       2.947030000000000E-002 -8.458900000000000E-003        
  2.567000000000000E-003  0.000000000000000E+000  0.000000000000000E+000        
  0.000000000000000E+000  0.000000000000000E+000  0.000000000000000E+000        
   520.400000000000       8.783249999999999E-002 -2.596380000000000E-002        
  7.885500000000000E-003  0.000000000000000E+000  0.000000000000000E+000        
  0.000000000000000E+000  0.000000000000000E+000  0.000000000000000E+000        
   203.100000000000       0.211473000000000      -6.863619999999999E-002        
  2.108670000000000E-002  0.000000000000000E+000  0.000000000000000E+000        
  0.000000000000000E+000  0.000000000000000E+000  0.000000000000000E+000        
   83.9600000000000       0.365364000000000      -0.141874000000000             
  4.422640000000000E-002  0.000000000000000E+000  0.000000000000000E+000        
  0.000000000000000E+000  0.000000000000000E+000  0.000000000000000E+000        
   36.2000000000000       0.340884000000000      -0.199319000000000             
  6.516700000000000E-002  0.000000000000000E+000  0.000000000000000E+000        
  0.000000000000000E+000  0.000000000000000E+000  0.000000000000000E+000        
   15.8300000000000       0.102133000000000      -1.956620000000000E-002        
  6.030100000000000E-003  0.000000000000000E+000  0.000000000000000E+000        
  0.000000000000000E+000  0.000000000000000E+000  0.000000000000000E+000        
   6.33400000000000       3.116800000000000E-003  0.499741000000000             
 -0.206495000000000       0.000000000000000E+000  0.000000000000000E+000        
  0.000000000000000E+000  0.000000000000000E+000  0.000000000000000E+000        
   2.69400000000000       1.057500000000000E-003  0.563736000000000             
 -0.405871000000000       0.000000000000000E+000  0.000000000000000E+000        
  0.000000000000000E+000  0.000000000000000E+000  0.000000000000000E+000        
  0.976800000000000      -3.780000000000000E-004  7.903250000000001E-002        
  7.595580000000000E-002   1.00000000000000       0.000000000000000E+000        
  0.000000000000000E+000  0.000000000000000E+000  0.000000000000000E+000        
  0.431300000000000       1.561000000000000E-004 -8.350900000000000E-003        
  0.725661000000000       0.000000000000000E+000  0.000000000000000E+000        
  0.000000000000000E+000  0.000000000000000E+000  0.000000000000000E+000        
  0.162500000000000      -5.140000000000000E-005  2.324600000000000E-003        
  0.394423000000000       0.000000000000000E+000   1.00000000000000             
  0.000000000000000E+000  0.000000000000000E+000  0.000000000000000E+000        
   15.0640000000000       0.000000000000000E+000  0.000000000000000E+000        
  0.000000000000000E+000  0.000000000000000E+000  0.000000000000000E+000        
   1.00000000000000       0.000000000000000E+000  0.000000000000000E+000        
   2.87400000000000       0.000000000000000E+000  0.000000000000000E+000        
  0.000000000000000E+000  0.000000000000000E+000  0.000000000000000E+000        
  0.000000000000000E+000   1.00000000000000       0.000000000000000E+000        
  5.910000000000000E-002  0.000000000000000E+000  0.000000000000000E+000        
  0.000000000000000E+000  0.000000000000000E+000  0.000000000000000E+000        
  0.000000000000000E+000  0.000000000000000E+000   1.00000000000000             
   12    7                                                                      
   663.300000000000       2.404500000000000E-003 -6.521000000000000E-004        
  0.000000000000000E+000  0.000000000000000E+000  0.000000000000000E+000        
  0.000000000000000E+000  0.000000000000000E+000                                
   156.800000000000       1.921480000000000E-002 -5.194500000000000E-003        
  0.000000000000000E+000  0.000000000000000E+000  0.000000000000000E+000        
  0.000000000000000E+000  0.000000000000000E+000                                
   49.9800000000000       8.850970000000000E-002 -2.469380000000000E-002        
  0.000000000000000E+000  0.000000000000000E+000  0.000000000000000E+000        
  0.000000000000000E+000  0.000000000000000E+000                                
   18.4200000000000       0.256020000000000      -7.281670000000000E-002        
  0.000000000000000E+000  0.000000000000000E+000  0.000000000000000E+000        
  0.000000000000000E+000  0.000000000000000E+000                                
   7.24000000000000       0.436927000000000      -0.134030000000000             
  0.000000000000000E+000  0.000000000000000E+000  0.000000000000000E+000        
  0.000000000000000E+000  0.000000000000000E+000                                
   2.92200000000000       0.350334000000000      -9.477420000000000E-002        
  0.000000000000000E+000  0.000000000000000E+000  0.000000000000000E+000        
  0.000000000000000E+000  0.000000000000000E+000                                
   1.02200000000000       5.854950000000000E-002  0.262289000000000             
   1.00000000000000       0.000000000000000E+000  0.000000000000000E+000        
  0.000000000000000E+000  0.000000000000000E+000                                
  0.381800000000000      -4.584200000000000E-003  0.564667000000000             
  0.000000000000000E+000  0.000000000000000E+000  0.000000000000000E+000        
  0.000000000000000E+000  0.000000000000000E+000                                
  0.130100000000000       2.269700000000000E-003  0.341250000000000             
  0.000000000000000E+000   1.00000000000000       0.000000000000000E+000        
  0.000000000000000E+000  0.000000000000000E+000                                
   9.48000000000000       0.000000000000000E+000  0.000000000000000E+000        
  0.000000000000000E+000  0.000000000000000E+000   1.00000000000000             
  0.000000000000000E+000  0.000000000000000E+000                                
   3.66800000000000       0.000000000000000E+000  0.000000000000000E+000        
  0.000000000000000E+000  0.000000000000000E+000  0.000000000000000E+000        
   1.00000000000000       0.000000000000000E+000                                
  4.190000000000000E-002  0.000000000000000E+000  0.000000000000000E+000        
  0.000000000000000E+000  0.000000000000000E+000  0.000000000000000E+000        
  0.000000000000000E+000   1.00000000000000                                     
    5    5                                                                      
   1.04600000000000        1.00000000000000       0.000000000000000E+000        
  0.000000000000000E+000  0.000000000000000E+000  0.000000000000000E+000        
  0.344000000000000       0.000000000000000E+000   1.00000000000000             
  0.000000000000000E+000  0.000000000000000E+000  0.000000000000000E+000        
   17.9570000000000       0.000000000000000E+000  0.000000000000000E+000        
   1.00000000000000       0.000000000000000E+000  0.000000000000000E+000        
   5.76000000000000       0.000000000000000E+000  0.000000000000000E+000        
  0.000000000000000E+000   1.00000000000000       0.000000000000000E+000        
  0.135000000000000       0.000000000000000E+000  0.000000000000000E+000        
  0.000000000000000E+000  0.000000000000000E+000   1.00000000000000             
    3    3                                                                      
  0.706000000000000        1.00000000000000       0.000000000000000E+000        
  0.000000000000000E+000                                                        
   11.7790000000000       0.000000000000000E+000   1.00000000000000             
  0.000000000000000E+000                                                        
  0.312000000000000       0.000000000000000E+000  0.000000000000000E+000        
   1.00000000000000                                                             
FINISH                                                                          
 
********************************************************************************
 ONE- AND TWO-ELECTRON INTEGRALS OVER SYMMETRY-ADAPTED AOS ARE CALCULATED.

  SPHERICAL HARMONICS ARE USED.
  
  INTEGRALS LESS THAN  0.10E-13 ARE NEGLECTED.

  NUCLEAR REPULSION ENERGY :   50.5841098585 A.U.
  @MOLECU-I, ONE ELECTRON INTEGRALS (CPU/WALL):        0.04/       0.05 SECONDS.
  @TWOEL-I,   14240015 INTEGRALS OF SYMMETRY TYPE  I I I I
  @TWOEL-I,   13468771 INTEGRALS OF SYMMETRY TYPE  I J I J
  @TWOEL-I,    6950183 INTEGRALS OF SYMMETRY TYPE  I I J J
  @TWOEL-I, TOTAL NUMBER OF 2-E INTEGRALS   34658969.
  @MOLECU-I, TWO ELECTRON INTEGRALS (CPU/WALL):       55.18/       8.61 SECONDS.
 @CHECKOUT-I, Total execution time (CPU/WALL):       55.23/       8.67 seconds.

Running with 14 threads/proc

--executable xvmol finished with status     0 in        8.72 seconds (walltime).
 --invoking executable--
/home/asmola/.local/bin/xvmol2ja
 @GETMEM-I,  Allocated    3814 MB of main memory.
 @CHECKOUT-I, Total execution time (CPU/WALL):        0.07/       0.02 seconds.
--executable xvmol2ja finished with status     0 in        0.05 seconds (walltime).
 --invoking executable--
/home/asmola/.local/bin/xvscf
  There are  157 functions in the AO basis.

  There are 2 irreducible representations.

       Irrep        # of functions
         1                104
         2                 53


  Parameters for SCF calculation: 
        SCF reference function:  RHF  
  Maximum number of iterations:  150
     Full symmetry point group: C s 
     Computational point group: C s 
        Initial density matrix: MOREAD                 
     SCF convergence tolerance: 10**(-10)
  DIIS convergence acceleration:  ON
          Latest start for DIIS:   8
                     DIIS order:   6

  Memory information:    1209746 words required.
  Fock matrices are constructed from AO integral file.
 @GETMEM-I,  Allocated       9 MB of main memory.
  Initialization and symmetry analysis required      0.002 seconds.

  @INITGES-I, Occupancies from core Hamiltonian:

          Alpha population by irrep:  10    3
           Beta population by irrep:  10    3


 total no. of electrons in initial guess :  0.000000000000000E+000
  --------------------------------------------------------------------
  Iteration         Total Energy            Largest Density Difference
  --------------------------------------------------------------------
       0            50.584109858469134              0.0000000000D+00
   current occupation vector 
    10  3
    10  3
       1          -365.567499372814495              0.1326031458D+02
   current occupation vector 
    10  3
    10  3
       2          -340.037678796216824              0.1324287820D+02
   current occupation vector 
    10  3
    10  3
       3          -421.477036622909054              0.1073361751D+02
   current occupation vector 
    10  3
    10  3
       4          -338.094939642148688              0.1073886671D+02
   current occupation vector 
    10  3
    10  3
       5          -421.309691804916042              0.1069554964D+02
   current occupation vector 
    10  3
    10  3
       6          -338.048469171661395              0.1069560895D+02
   current occupation vector 
    10  3
    10  3
       7          -421.304017585206338              0.1069419814D+02
   current occupation vector 
    10  3
    10  3
       8          -338.047157945094227              0.1069419968D+02
   current occupation vector 
    10  3
    10  3
       9          -445.270234325134766              0.8379301216D+01
   current occupation vector 
    10  3
    10  3
      10          -463.817270994535988              0.2049842314D+01
   current occupation vector 
    10  3
    10  3
      11          -469.346547180001266              0.6320713617D+00
   current occupation vector 
    10  3
    10  3
      12          -468.887181594361664              0.1283782332D+00
   current occupation vector 
    10  3
    10  3
      13          -479.167085766909508              0.1353526308D+01
   current occupation vector 
    10  3
    10  3
      14          -485.598649484861312              0.8203931132D+00
   current occupation vector 
    10  3
    10  3
      15          -507.577988458680579              0.7487333248D+01
   current occupation vector 
    10  3
    10  3
      16          -521.888423139852534              0.7486689657D+01
   current occupation vector 
    11  2
    11  2
      17          -527.367605227362105              0.4045863432D+01
   current occupation vector 
    11  2
    11  2
      18          -533.744705785278938              0.2788323212D+01
   current occupation vector 
    10  3
    10  3
      19          -534.719021688183489              0.7826514837D+00
   current occupation vector 
    10  3
    10  3
      20          -534.890269411403779              0.3140769573D+00
   current occupation vector 
    10  3
    10  3
      21          -534.903461439063562              0.1498803001D+00
   current occupation vector 
    10  3
    10  3
      22          -534.905300948474860              0.4187352933D-01
   current occupation vector 
    10  3
    10  3
      23          -534.905785617994638              0.2961987122D-01
   current occupation vector 
    10  3
    10  3
      24          -534.905838331063251              0.9164490619D-02
   current occupation vector 
    10  3
    10  3
      25          -534.905849398565351              0.4391355296D-02
   current occupation vector 
    10  3
    10  3
      26          -534.905850431937665              0.1280525484D-02
   current occupation vector 
    10  3
    10  3
      27          -534.905850570423922              0.5166213986D-03
   current occupation vector 
    10  3
    10  3
      28          -534.905850596058940              0.2895794934D-03
   current occupation vector 
    10  3
    10  3
      29          -534.905850596718324              0.4114811984D-04
   current occupation vector 
    10  3
    10  3
      30          -534.905850596752771              0.9426640208D-05
   current occupation vector 
    10  3
    10  3
      31          -534.905850596764139              0.2060906102D-05
   current occupation vector 
    10  3
    10  3
      32          -534.905850596757659              0.7194028152D-06
   current occupation vector 
    10  3
    10  3
      33          -534.905850596763003              0.1872275171D-06
   current occupation vector 
    10  3
    10  3
      34          -534.905850596757091              0.8887670033D-07
   current occupation vector 
    10  3
    10  3
      35          -534.905850596761411              0.3338182958D-07
   current occupation vector 
    10  3
    10  3
      36          -534.905850596760160              0.2249813291D-07
   current occupation vector 
    10  3
    10  3
      37          -534.905850596763571              0.7351714182D-08
   current occupation vector 
    10  3
    10  3
      38          -534.905850596761638              0.3611390173D-08
   current occupation vector 
    10  3
    10  3
      39          -534.905850596758683              0.7617310255D-09
   current occupation vector 
    10  3
    10  3
      40          -534.905850596758455              0.2784531355D-09
   current occupation vector 
    10  3
    10  3

  SCF has converged.

 Density matrix saved to file den.dat
 total electron number:   26.0000000000002     
     E(SCF)=      -534.905850596760615              0.7018828574D-10

  Eigenvector printing suppressed.

 @PUTMOS-I, Writing converged MOs to NEWMOS. 
 @PUTMOS-I, Symmetry   1 Full Blocks 26 Partial Blocksize   0
 @PUTMOS-I, Symmetry   2 Full Blocks 13 Partial Blocksize   1
 @PUTFOCK-I, Writing converged Fock matrix to NEWFOCK. 
 @PUTFOCK-I, Symmetry   1 Full Blocks 26 Partial Blocksize   0
 @PUTFOCK-I, Symmetry   2 Full Blocks 13 Partial Blocksize   1


 
  ORBITAL EIGENVALUES (ALPHA)  (1H = 27.2113834 eV)

       MO #        E(hartree)               E(eV)           FULLSYM    COMPSYM
       ----   --------------------   --------------------   -------   ---------
    1     1        -104.8879801093       -2854.1470408059     A'        A'  (1)
    2     2         -20.6496901735        -561.9066364031     A'        A'  (1)
    3     3         -10.6079188416        -288.6561466744     A'        A'  (1)
    4     4          -8.0746417655        -219.7221728977     A'        A'  (1)
    5     5          -8.0723222966        -219.6590569424     A'        A'  (1)
    6   105          -8.0721709985        -219.6549399101     A''       A'' (2)
    7     6          -1.3880211084         -37.7699745484     A'        A'  (1)
    8     7          -1.0494548632         -28.5571186430     A'        A'  (1)
    9     8          -0.6890897636         -18.7510857545     A'        A'  (1)
   10   106          -0.6095559144         -16.5868596896     A''       A'' (2)
   11     9          -0.5993827747         -16.3100344845     A'        A'  (1)
   12    10          -0.4607301955         -12.5371059943     A'        A'  (1)
   13   107          -0.4394875596         -11.9590644828     A''       A'' (2)
  +++++++++++++++++++++++++++++++++++++++++++++++++++++++++++++++++++++++++++++
   14    11           0.0247299929           0.6729373175     A'        A'  (1)
   15    12           0.0629026890           1.7116691877     A'        A'  (1)
   16    13           0.1099174033           2.9910046038     A'        A'  (1)
   17   108           0.1165468817           3.1714018811     A''       A'' (2)
   18    14           0.1372077597           3.7336129544     A'        A'  (1)
   19    15           0.1566932338           4.2638396609     A'        A'  (1)
   20    16           0.1722014057           4.6858384712     A'        A'  (1)
   21    17           0.1744055574           4.7458164883     A'        A'  (1)
   22   109           0.1905728912           5.1857520086     A''       A'' (2)
   23    18           0.2354134836           6.4059265593     A'        A'  (1)
   24   110           0.2562117556           6.9718763138     A''       A'' (2)
   25    19           0.3011771215           8.1954461235     A'        A'  (1)
   26    20           0.3253575844           8.8534299707     A'        A'  (1)
   27   111           0.3824876746          10.4080187603     A''       A'' (2)
   28    21           0.3863496199          10.5131076328     A'        A'  (1)
   29    22           0.3919244719          10.6648070690     A'        A'  (1)
   30   112           0.4219267099          11.4812094696     A''       A'' (2)
   31    23           0.4511225806          12.2756695009     A'        A'  (1)
   32    24           0.5042013828          13.7200171383     A'        A'  (1)
   33    25           0.6021774544          16.3860815861     A'        A'  (1)
   34   113           0.6141721037          16.7124725885     A''       A'' (2)
   35    26           0.6770602970          18.4237473275     A'        A'  (1)
   36    27           0.6967638678          18.9599087449     A'        A'  (1)
   37   114           0.7188346500          19.5604852631     A''       A'' (2)
   38    28           0.7292811294          19.8447484189     A'        A'  (1)
   39   115           0.7697545169          20.9460852831     A''       A'' (2)
   40    29           0.7699969346          20.9526818043     A'        A'  (1)
   41    30           0.8622043187          23.4617722845     A'        A'  (1)
   42    31           0.8679827697          23.6190119306     A'        A'  (1)
   43   116           0.8781525663          23.8957461653     A''       A'' (2)
   44   117           0.9031506170          24.5759777082     A''       A'' (2)
   45    32           0.9070816399          24.6829462793     A'        A'  (1)
   46   118           0.9219158403          25.0866053916     A''       A'' (2)
   47    33           0.9262262882          25.2038986442     A'        A'  (1)
   48    34           0.9615354311          26.1647092682     A'        A'  (1)
   49   119           0.9903376811          26.9484583360     A''       A'' (2)
   50    35           0.9911145251          26.9695973353     A'        A'  (1)
   51    36           1.0153633565          27.6294415850     A'        A'  (1)
   52    37           1.1182162279          30.4282105024     A'        A'  (1)
   53   120           1.1316908741          30.7948742641     A''       A'' (2)
   54   121           1.2056798742          32.8082173133     A''       A'' (2)
   55    38           1.2175107458          33.1301516962     A'        A'  (1)
   56    39           1.2462980333          33.9134936141     A'        A'  (1)
   57    40           1.3149449443          35.7814710281     A'        A'  (1)
   58   122           1.3925909258          37.8943256019     A''       A'' (2)
   59    41           1.4056159090          38.2487534128     A'        A'  (1)
   60   123           1.4805224211          40.2870632336     A''       A'' (2)
   61   124           1.5284730476          41.5918661158     A''       A'' (2)
   62    42           1.5716765753          42.7674938706     A'        A'  (1)
   63    43           1.6511926544          44.9312363858     A'        A'  (1)
   64    44           1.7208840949          46.8276368944     A'        A'  (1)
   65    45           1.8111321917          49.2834124562     A'        A'  (1)
   66    46           1.8256203366          49.6776549224     A'        A'  (1)
   67   125           2.1776509959          59.2568961597     A''       A'' (2)
   68   126           2.2308890733          60.7055778958     A''       A'' (2)
   69    47           2.2472808202          61.1516200057     A'        A'  (1)
   70    48           2.2833112109          62.1320567801     A'        A'  (1)
   71    49           2.3097682045          62.8519881768     A'        A'  (1)
   72   127           2.3192784520          63.1107751695     A''       A'' (2)
   73    50           2.3591983228          64.1970500793     A'        A'  (1)
   74    51           2.3968283360          65.2210147938     A'        A'  (1)
   75    52           2.4505178021          66.6819794420     A'        A'  (1)
   76   128           2.4513551026          66.7047635467     A''       A'' (2)
   77   129           2.4766971763          67.3943564307     A''       A'' (2)
   78   130           2.4828791774          67.5625772318     A''       A'' (2)
   79    53           2.4995612035          68.0165182404     A'        A'  (1)
   80    54           2.6483328395          72.0648002669     A'        A'  (1)
   81   131           2.7086471689          73.7060366083     A''       A'' (2)
   82    55           2.7407423769          74.5793916181     A'        A'  (1)
   83   132           2.8952189809          78.7829137167     A''       A'' (2)
   84    56           2.9364629082          79.9052180339     A'        A'  (1)
   85    57           2.9645424130          80.6693002067     A'        A'  (1)
   86   133           3.0601785777          83.2716925496     A''       A'' (2)
   87    58           3.0714114170          83.5773536482     A'        A'  (1)
   88   134           3.1271353034          85.0936776851     A''       A'' (2)
   89    59           3.1281529240          85.1213685497     A'        A'  (1)
   90    60           3.2501185880          88.4402229942     A'        A'  (1)
   91    61           3.2891951005          89.5035489563     A'        A'  (1)
   92   135           3.3608523378          91.4534415140     A''       A'' (2)
   93    62           3.4585554697          94.1120788969     A'        A'  (1)
   94    63           3.5699705926          97.1438385230     A'        A'  (1)
   95    64           3.8087206058         103.6405566676     A'        A'  (1)
   96   136           4.0161035216         109.2837326994     A''       A'' (2)
   97   137           4.0407091111         109.9532848302     A''       A'' (2)
   98    65           4.1948679088         114.1481589781     A'        A'  (1)
   99   138           4.3114119956         117.3194848086     A''       A'' (2)
  100    66           4.3947940360         119.5884254774     A'        A'  (1)
  101    67           4.5499479270         123.8103774928     A'        A'  (1)
  102    68           4.7153742011         128.3118552607     A'        A'  (1)
  103   139           4.8994255548         133.3201472108     A''       A'' (2)
  104    69           4.9214966543         133.9207323612     A'        A'  (1)
  105    70           5.2636078280         143.2300506753     A'        A'  (1)
  106    71           5.7474125096         156.3950453575     A'        A'  (1)
  107    72           6.3143892295         171.8232662597     A'        A'  (1)
  108   140           6.6262754128         180.3101207716     A''       A'' (2)
  109    73           6.6883503216         181.9992649146     A'        A'  (1)
  110   141           6.7422519469         183.4660027077     A''       A'' (2)
  111    74           6.7757206922         184.3767335656     A'        A'  (1)
  112   142           6.9265088742         188.4798886002     A''       A'' (2)
  113    75           6.9972196650         190.4040270384     A'        A'  (1)
  114   143           7.1431837292         194.3759111506     A''       A'' (2)
  115    76           7.2162731180         196.3647745337     A'        A'  (1)
  116   144           7.2484064453         197.2391668208     A''       A'' (2)
  117    77           7.5474270598         205.3759314081     A'        A'  (1)
  118    78           7.7777464090         211.6432395241     A'        A'  (1)
  119    79           8.1506646440         221.7908605932     A'        A'  (1)
  120   145          10.3520860526         281.6945825659     A''       A'' (2)
  121    80          10.3530070712         281.7196447567     A'        A'  (1)
  122   146          10.3902968177         282.7343503456     A''       A'' (2)
  123    81          10.4408936286         284.1111595663     A'        A'  (1)
  124    82          10.6222394289         289.0458296657     A'        A'  (1)
  125   147          12.6822275085         345.1009551004     A''       A'' (2)
  126    83          12.7354859267         346.5501903359     A'        A'  (1)
  127    84          13.2251716669         359.8752167582     A'        A'  (1)
  128    85          18.2748525589         497.2840195594     A'        A'  (1)
  129   148          26.1116792689         710.5349158041     A''       A'' (2)
  130    86          26.5672842673         722.9325580944     A'        A'  (1)
  131    87          27.2829834725         742.4077235660     A'        A'  (1)
  132    88          29.0231988919         789.7613925431     A'        A'  (1)
  133   149          36.8978312521        1004.0410328307     A''       A'' (2)
  134   150          36.8984197415        1004.0570464388     A''       A'' (2)
  135    89          36.8985430072        1004.0604006697     A'        A'  (1)
  136    90          36.9023129346        1004.1629856089     A'        A'  (1)
  137   151          36.9070602714        1004.2921672123     A''       A'' (2)
  138    91          36.9072578012        1004.2975422721     A'        A'  (1)
  139    92          36.9112179124        1004.4053023743     A'        A'  (1)
  140   152          43.9070996626        1194.7729229004     A''       A'' (2)
  141    93          43.9264070628        1195.2983039697     A'        A'  (1)
  142   153          43.9435488105        1195.7647546398     A''       A'' (2)
  143    94          44.0499764692        1198.6607984631     A'        A'  (1)
  144    95          44.1167801418        1200.4786188108     A'        A'  (1)
  145   154          46.4853089625        1264.9295646457     A''       A'' (2)
  146    96          46.4858506802        1264.9443055341     A'        A'  (1)
  147   155          46.5100748645        1265.6034791004     A''       A'' (2)
  148    97          46.5377421154        1266.3563432714     A'        A'  (1)
  149    98          46.6257754390        1268.7518517919     A'        A'  (1)
  150   156          55.0219383575        1497.2230600564     A''       A'' (2)
  151    99          55.0800374960        1498.8040179896     A'        A'  (1)
  152   100          55.6519507490        1514.3665687892     A'        A'  (1)
  153   101         103.8569246429        2826.0905952018     A'        A'  (1)
  154   157         138.2610894985        3762.2755156451     A''       A'' (2)
  155   102         138.5855553460        3771.1046802209     A'        A'  (1)
  156   103         139.1529528522        3786.5443513022     A'        A'  (1)
  157   104         149.7597325552        4075.1695004416     A'        A'  (1)


  VSCF finished.

 @CHECKOUT-I, Total execution time (CPU/WALL):       68.31/      14.11 seconds.
--executable xvscf finished with status     0 in       14.14 seconds (walltime).
 --invoking executable--
/home/asmola/.local/bin/xvtran
 @GETMEM-I,  Allocated    3814 MB of main memory.
  Full RHF integral transformation
  Transformation of IIII integrals :
  1 pass through the AO integral file was required.
    14240015 AO integrals were read.
    15933126 MO integrals were written to HF2.
  Transformation of IIJJ integrals :
  1 pass through the AO integral file was required.
     6950183 AO integrals were read.
     7813260 MO integrals were written to HF2.
  Transformation of IJIJ integrals :
  1 pass through the AO integral file was required.
    13468771 AO integrals were read.
    15193828 MO integrals were written to HF2.
  Summary of active molecular orbitals: 
------------------------------------------------------------------------
 
  Index      Eigenvalue    Symmetry    Index      Eigenvalue    Symmetry
------------------------------------------------------------------------
     1      -104.8879801        1        80         7.5474271        1
     2       -20.6496902        1        81         7.7777464        1
     3       -10.6079188        1        82         8.1506646        1
     4        -8.0746418        1        83        10.3530071        1
     5        -8.0723223        1        84        10.4408936        1
     6        -1.3880211        1        85        10.6222394        1
     7        -1.0494549        1        86        12.7354859        1
     8        -0.6890898        1        87        13.2251717        1
     9        -0.5993828        1        88        18.2748526        1
    10        -0.4607302        1        89        26.5672843        1
    11        -8.0721710        2        90        27.2829835        1
    12        -0.6095559        2        91        29.0231989        1
    13        -0.4394876        2        92        36.8985430        1
    14         0.0247300        1        93        36.9023129        1
    15         0.0629027        1        94        36.9072578        1
    16         0.1099174        1        95        36.9112179        1
    17         0.1372078        1        96        43.9264071        1
    18         0.1566932        1        97        44.0499765        1
    19         0.1722014        1        98        44.1167801        1
    20         0.1744056        1        99        46.4858507        1
    21         0.2354135        1       100        46.5377421        1
    22         0.3011771        1       101        46.6257754        1
    23         0.3253576        1       102        55.0800375        1
    24         0.3863496        1       103        55.6519507        1
    25         0.3919245        1       104       103.8569246        1
    26         0.4511226        1       105       138.5855553        1
    27         0.5042014        1       106       139.1529529        1
    28         0.6021775        1       107       149.7597326        1
    29         0.6770603        1       108         0.1165469        2
    30         0.6967639        1       109         0.1905729        2
    31         0.7292811        1       110         0.2562118        2
    32         0.7699969        1       111         0.3824877        2
    33         0.8622043        1       112         0.4219267        2
    34         0.8679828        1       113         0.6141721        2
    35         0.9070816        1       114         0.7188347        2
    36         0.9262263        1       115         0.7697545        2
    37         0.9615354        1       116         0.8781526        2
    38         0.9911145        1       117         0.9031506        2
    39         1.0153634        1       118         0.9219158        2
    40         1.1182162        1       119         0.9903377        2
    41         1.2175107        1       120         1.1316909        2
    42         1.2462980        1       121         1.2056799        2
    43         1.3149449        1       122         1.3925909        2
    44         1.4056159        1       123         1.4805224        2
    45         1.5716766        1       124         1.5284730        2
    46         1.6511927        1       125         2.1776510        2
    47         1.7208841        1       126         2.2308891        2
    48         1.8111322        1       127         2.3192785        2
    49         1.8256203        1       128         2.4513551        2
    50         2.2472808        1       129         2.4766972        2
    51         2.2833112        1       130         2.4828792        2
    52         2.3097682        1       131         2.7086472        2
    53         2.3591983        1       132         2.8952190        2
    54         2.3968283        1       133         3.0601786        2
    55         2.4505178        1       134         3.1271353        2
    56         2.4995612        1       135         3.3608523        2
    57         2.6483328        1       136         4.0161035        2
    58         2.7407424        1       137         4.0407091        2
    59         2.9364629        1       138         4.3114120        2
    60         2.9645424        1       139         4.8994256        2
    61         3.0714114        1       140         6.6262754        2
    62         3.1281529        1       141         6.7422519        2
    63         3.2501186        1       142         6.9265089        2
    64         3.2891951        1       143         7.1431837        2
    65         3.4585555        1       144         7.2484064        2
    66         3.5699706        1       145        10.3520861        2
    67         3.8087206        1       146        10.3902968        2
    68         4.1948679        1       147        12.6822275        2
    69         4.3947940        1       148        26.1116793        2
    70         4.5499479        1       149        36.8978313        2
    71         4.7153742        1       150        36.8984197        2
    72         4.9214967        1       151        36.9070603        2
    73         5.2636078        1       152        43.9070997        2
    74         5.7474125        1       153        43.9435488        2
    75         6.3143892        1       154        46.4853090        2
    76         6.6883503        1       155        46.5100749        2
    77         6.7757207        1       156        55.0219384        2
    78         6.9972197        1       157       138.2610895        2
    79         7.2162731        1
------------------------------------------------------------------------
  -104.887980109306       -20.6496901735284       -10.6079188415836     
  -8.07464176546258       -8.07232229664733       -1.38802110841591     
  -1.04945486317995      -0.689089763606190      -0.599382774655308     
 -0.460730195522836       -8.07217099848385      -0.609555914368193     
 -0.439487559562223       2.472999287208143E-002  6.290268901742570E-002
  0.109917403310369       0.137207759691850       0.156693233792179     
  0.172201405650745       0.174405557355004       0.235413483582367     
  0.301177121465692       0.325357584383187       0.386349619871228     
  0.391924471909566       0.451122580593241       0.504201382804581     
  0.602177454385670       0.677060297032625       0.696763867761308     
  0.729281129416784       0.769996934601758       0.862204318671176     
  0.867982769690130       0.907081639933599       0.926226288230304     
  0.961535431096214       0.991114525083174        1.01536335653703     
   1.11821622793405        1.21751074575060        1.24629803327517     
   1.31494494425933        1.40561590899401        1.57167657527582     
   1.65119265438798        1.72088409493948        1.81113219169117     
   1.82562033661342        2.24728082019024        2.28331121085420     
   2.30976820446273        2.35919832283607        2.39682833596039     
   2.45051780211860        2.49956120350862        2.64833283951699     
   2.74074237688765        2.93646290816227        2.96454241303780     
   3.07141141703775        3.12815292403227        3.25011858802482     
   3.28919510046886        3.45855546972635        3.56997059263941     
   3.80872060578814        4.19486790877920        4.39479403599154     
   4.54994792704131        4.71537420110207        4.92149665426999     
   5.26360782801357        5.74741250962983        6.31438922946122     
   6.68835032159966        6.77572069215603        6.99721966500267     
   7.21627311802403        7.54742705981327        7.77774640903110     
   8.15066464401707        10.3530070711785        10.4408936285934     
   10.6222394288729        12.7354859266694        13.2251716668784     
   18.2748525589260        26.5672842673029        27.2829834724973     
   29.0231988919415        36.8985430071795        36.9023129345539     
   36.9072578012370        36.9112179123651        43.9264070627758     
   44.0499764691532        44.1167801417548        46.4858506802012     
   46.5377421153611        46.6257754389621        55.0800374959824     
   55.6519507490097        103.856924642860        138.585555345964     
   139.152952852159        149.759732555222       0.116546881666251     
  0.190572891217561       0.256211755621118       0.382487674637002     
  0.421926709893631       0.614172103742078       0.718834650026367     
  0.769754516894347       0.878152566301436       0.903150617037531     
  0.921915840250516       0.990337681104919        1.13169087405154     
   1.20567987415379        1.39259092582029        1.48052242112631     
   1.52847304763494        2.17765099585717        2.23088907327607     
   2.31927845202985        2.45135510261175        2.47669717632748     
   2.48287917738837        2.70864716890220        2.89521898091636     
   3.06017857767540        3.12713530342177        3.36085233777747     
   4.01610352156342        4.04070911110809        4.31141199563459     
   4.89942555477760        6.62627541279677        6.74225194694265     
   6.92650887422927        7.14318372915354        7.24840644525259     
   10.3520860525575        10.3902968176767        12.6822275085231     
   26.1116792689099        36.8978312521494        36.8984197414519     
   36.9070602714132        43.9070996625786        43.9435488105233     
   46.4853089624868        46.5100748644904        55.0219383574757     
   138.261089498488     
 @CHECKOUT-I, Total execution time (CPU/WALL):       33.43/      18.80 seconds.
--executable xvtran finished with status     0 in       18.86 seconds (walltime).
 --invoking executable--
/home/asmola/.local/bin/xintprc
 @GETMEM-I,  Allocated    3814 MB of main memory.
  Processing integrals for CCSD calculation.
  @GMOIAA-I, Processing MO integrals for spin case AA.
  @GMOIAA-I, Generation of integral list completed.
                      TYPE                NUMBER
                      ----               --------
                      PPPP              27524020
                      PPPH               9932000
                      PPHH                900748
                      PHPH                491140
                      PHHH                 89950
                      HHHH                  2356

                     TOTAL              38940214

  @FORMT2-I, Second-order MP correlation energies:
            ------------------------------------------------
            E(SCF)                  =   -534.905850596761 a.u.
            E2(AA)                  =     -0.108234348826 a.u.
            E2(AB)                  =     -0.634836928567 a.u.
            E2(TOT)                 =     -0.851305626218 a.u.
            Total MP2 energy        =   -535.757156222979 a.u.
            ------------------------------------------------
   Largest T2 amplitudes for spin case AB:
       _       _                 _       _                 _       _
   i   j   a   b             i   j   a   b             i   j   a   b
-----------------------------------------------------------------------------
[  9   9  15  15]-0.01979 [ 13  13 112 112]-0.01773 [  9   9  19  19]-0.01762
[  9   9  19  15] 0.01720 [  9   9  15  19] 0.01720 [  8   8  24  24]-0.01654
[ 10  10  26  26]-0.01544 [ 13  13 113 113]-0.01542 [  9   9  18  15]-0.01530
[  9   9  15  18]-0.01530 [ 10  10 117 117]-0.01469 [  9   9  18  18]-0.01383
[  9   9  17  15] 0.01367 [  9   9  15  17] 0.01367 [  9   9  19  18] 0.01348
-----------------------------------------------------------------------------
   Norm of T2AB vector (  1799624 symmetry allowed elements):  0.3313711663.
-----------------------------------------------------------------------------
 @CHECKOUT-I, Total execution time (CPU/WALL):        6.17/       7.74 seconds.
--executable xintprc finished with status     0 in        7.87 seconds (walltime).
  calling xvcc 
 --invoking executable--
/home/asmola/.local/bin/xvcc
 @GETMEM-I,  Allocated    3814 MB of main memory.
   CCSD energy will be calculated.
   The total correlation energy is -0.851305626218 a.u.
   The total correlation energy is -0.849937582741 a.u.
  Convergence information after     1 iterations: 
  Largest element of residual vector : -0.12517660E-01.
  Largest element of DIIS residual   : -0.12517660E-01.
   The total correlation energy is -0.864872612399 a.u.
  Convergence information after     2 iterations: 
  Largest element of residual vector : -0.29520219E-02.
  Largest element of DIIS residual   : -0.26307748E-02.
   The total correlation energy is -0.864601476347 a.u.
  Convergence information after     3 iterations: 
  Largest element of residual vector : -0.21487192E-02.
  Largest element of DIIS residual   : -0.13213811E-02.
   The total correlation energy is -0.866070865338 a.u.
  Convergence information after     4 iterations: 
  Largest element of residual vector :  0.30578223E-03.
  Largest element of DIIS residual   : -0.28269615E-03.
   The total correlation energy is -0.866231702936 a.u.
  Convergence information after     5 iterations: 
  Largest element of residual vector : -0.34194546E-03.
  Largest element of DIIS residual   : -0.25468494E-03.
   The total correlation energy is -0.866236452945 a.u.
  Convergence information after     6 iterations: 
  Largest element of residual vector : -0.15927640E-03.
  Largest element of DIIS residual   : -0.11946454E-03.
   The total correlation energy is -0.866238856996 a.u.
  Convergence information after     7 iterations: 
  Largest element of residual vector : -0.10948471E-03.
  Largest element of DIIS residual   : -0.74027772E-04.
   The total correlation energy is -0.866238729802 a.u.
  Convergence information after     8 iterations: 
  Largest element of residual vector : -0.50675011E-04.
  Largest element of DIIS residual   : -0.29890293E-04.
   The total correlation energy is -0.866238534291 a.u.
  Convergence information after     9 iterations: 
  Largest element of residual vector : -0.25346741E-04.
  Largest element of DIIS residual   : -0.13712523E-04.
   The total correlation energy is -0.866239615671 a.u.
  Convergence information after    10 iterations: 
  Largest element of residual vector : -0.11312977E-04.
  Largest element of DIIS residual   : -0.52766929E-05.
   The total correlation energy is -0.866239935384 a.u.
  Convergence information after    11 iterations: 
  Largest element of residual vector : -0.30381279E-05.
  Largest element of DIIS residual   :  0.23227728E-05.
   The total correlation energy is -0.866240170231 a.u.
  Convergence information after    12 iterations: 
  Largest element of residual vector : -0.19627569E-05.
  Largest element of DIIS residual   : -0.10533284E-05.
   The total correlation energy is -0.866240273134 a.u.
  Convergence information after    13 iterations: 
  Largest element of residual vector : -0.57347465E-06.
  Largest element of DIIS residual   : -0.47222668E-06.
   The total correlation energy is -0.866240297819 a.u.
  Convergence information after    14 iterations: 
  Largest element of residual vector : -0.43218949E-06.
  Largest element of DIIS residual   : -0.28915779E-06.
   The total correlation energy is -0.866240303769 a.u.
  Convergence information after    15 iterations: 
  Largest element of residual vector : -0.19718604E-06.
  Largest element of DIIS residual   : -0.13488261E-06.
   The total correlation energy is -0.866240305513 a.u.
  Convergence information after    16 iterations: 
  Largest element of residual vector : -0.13058657E-06.
  Largest element of DIIS residual   : -0.67445714E-07.
   The total correlation energy is -0.866240306426 a.u.
  Convergence information after    17 iterations: 
  Largest element of residual vector : -0.64125034E-07.
  Largest element of DIIS residual   : -0.32148842E-07.
   The total correlation energy is -0.866240306645 a.u.
  Convergence information after    18 iterations: 
  Largest element of residual vector : -0.21773994E-07.
  Largest element of DIIS residual   : -0.14445744E-07.
   The total correlation energy is -0.866240306987 a.u.
  Convergence information after    19 iterations: 
  Largest element of residual vector : -0.13446984E-07.
  Largest element of DIIS residual   : -0.69786999E-08.
   The total correlation energy is -0.866240307209 a.u.
  Convergence information after    20 iterations: 
  Largest element of residual vector : -0.37707252E-08.
  Largest element of DIIS residual   : -0.27472539E-08.
   The total correlation energy is -0.866240307295 a.u.
  Convergence information after    21 iterations: 
  Largest element of residual vector : -0.25858300E-08.
  Largest element of DIIS residual   : -0.16138429E-08.
   The total correlation energy is -0.866240307350 a.u.
  Convergence information after    22 iterations: 
  Largest element of residual vector : -0.10350061E-08.
  Largest element of DIIS residual   : -0.87415556E-09.
   The total correlation energy is -0.866240307351 a.u.
  Convergence information after    23 iterations: 
  Largest element of residual vector : -0.73622646E-09.
  Largest element of DIIS residual   : -0.36716096E-09.
   The total correlation energy is -0.866240307356 a.u.
  Convergence information after    24 iterations: 
  Largest element of residual vector : -0.35166751E-09.
  Largest element of DIIS residual   : -0.26401465E-09.
   The total correlation energy is -0.866240307355 a.u.
  Convergence information after    25 iterations: 
  Largest element of residual vector : -0.17985073E-09.
  Largest element of DIIS residual   : -0.11675001E-09.
   The total correlation energy is -0.866240307357 a.u.
  Convergence information after    26 iterations: 
  Largest element of residual vector : -0.10525212E-09.
  Largest element of DIIS residual   : -0.63305246E-10.
   The total correlation energy is -0.866240307359 a.u.
  Convergence information after    27 iterations: 
  Largest element of residual vector : -0.38504902E-10.
  Largest element of DIIS residual   : -0.25495901E-10.
  Amplitude equations converged in    27iterations.
   The total correlation energy is -0.866240307359 a.u.
   The CC iterations have converged.

   Largest T1 amplitudes for spin case AA:
   i       a                 i       a                 i       a    
-----------------------------------------------------------------------------
[...]
 term  0.471633565981254     
 final tnorm  0.839543804787807     
  norm contr. I: |<0|L dT/dx|0>|^2   0.000000000000000E+000
  norm contr. II: <0|[nabla(1+L)e-T][nabla e^T]|0>  0.471633565981254     
  total norm contribution  0.471633565981254     
 oo  2.202599009847844E-003
 vv  -1.58698456156732     
 vo -2.643402710138882E-002
  Correlated perturbed 1-el contribution to DBOC  -1.61121598965886       cm**-1
  SUM_I |dc_I/dx|^2 contribution to DBOC  0.812144657443789       cm**-1
 
 
  The total diagonal Born-Oppenheimer correction (DBOC) is:      0.0087218259 a.u.
  The total diagonal Born-Oppenheimer correction (DBOC) is:       1914.219533 cm-1
 
 Total CC energy including DBOC  -535.763369078180     
 First-order density matrix is being calculated  (Symmetry block 2, perturbation   3)
 Calculation of the contributions of <pq||rs> to dI(i,j)/dx required   4.8 seconds.
 Calculation of the contributions of <pq||rs> to dI(a,b)/dx required  10.6 seconds.
 Calculation of the contributions of <pq||rs> to dI(i,a)/dx required   6.2 seconds.
 First-order Z-vector equations are solved for 1 perturbation.
 Convergence reached after  21 iterations.
        U*G(pq,rs) contribution is being calculated
             (Symmetry block 2, perturbation   3)

 CCSD contribution to force constants 

        0.0000000000        0.0000000000        0.0000000000
        0.0000000000        0.0000000000        0.0000000000
        0.0000000000        0.0000000000        0.0000000000
        0.0000000000        0.0000000000        0.0000000000
        0.0000000000        0.0000000000        0.0000000000
        0.0000000000        0.0000000000        0.0000000000
        0.0000000000        0.0000000000        0.0000000000
        0.0000000000        0.0000000000        0.0000000000
        0.0000000000        0.0000000000        0.0000000000
        0.0000000000        0.0000000000        0.0000000000
        0.0000000000        0.0000000000        0.0000000000
        0.0000000000        0.0000000000        0.0000000000
        0.0000000000        0.0000000000        0.0000000000
        0.0000000000        0.0000000000        0.0000000000
        0.0000000000        0.0000000000        0.0000000000
        0.0000000000        0.0000000000        0.0000000000
        0.0000000000        0.0000000000        0.0000000000
        0.0000000000        0.0000000000        0.0000000000
        0.0000000000        0.0000000000        0.0000000000
        0.0000000000        0.0000000000        0.0000000000
        0.0000000000        0.0000000000        0.0000000000
        0.0000000000        0.0000000000        0.0000000000
        0.0000000000        0.0000000000        0.0000000000
        0.0000000000        0.0000000000        0.0000000000
        0.0000000000        0.0000000000        0.0000000000
        0.0000000000        0.0000000000        0.0000000000
        0.0898918829        0.0013920799       -0.0912839628

 CCSD contribution to dipole derivatives 

        0.0000000000        0.0000000000        0.0000000000
        0.0000000000        0.0000000000        0.0000000000
        0.0000000000        0.0000000000        0.0000000000
        0.0000000000        0.0000000000        0.0000000000
        0.0000000000        0.0000000000        0.0000000000
        0.0000000000        0.0000000000        0.0000000000
        0.0000000000        0.0000000000        0.0000000000
        0.0000000000        0.0000000000        0.0000000000
        0.0000000000        0.0000000000        0.0129079523
 @CHECKOUT-I, Total execution time (CPU/WALL):      927.23/     244.99 seconds.
--executable xsdcc finished with status     0 in      245.16 seconds (walltime).
 --invoking executable--
/home/asmola/.local/bin/xanti
 @GETMEM-I,  Allocated    3814 MB of main memory.
 CCSD MO derivative gammas will be sorted to Mulliken order.
 @CHECKOUT-I, Total execution time (CPU/WALL):        6.21/       4.77 seconds.
--executable xanti finished with status     0 in        4.90 seconds (walltime).
 --invoking executable--
/home/asmola/.local/bin/xbcktrn
 @GETMEM-I,  Allocated    3814 MB of main memory.
 CCSD MO derivative gammas will be transformed to the AO basis.
 @CHECKOUT-I, Total execution time (CPU/WALL):       13.32/       2.56 seconds.
--executable xbcktrn finished with status     0 in        2.62 seconds (walltime).
 --invoking executable--
/home/asmola/.local/bin/xvdint
 @GETMEM-I,  Allocated    3814 MB of main memory.
 One- and two-electron integral derivatives are calculated
 for RHF-CC/MBPT hessians and dipole derivatives.
 Spherical gaussians are used.
  magnet F F
 Evaluation of 2el integral derivatives

                      Two-electron integral gradient
                      ------------------------------

                         O #1 x     0.0000000000
                         O #1 y     0.0000000000
                         H #2 x     0.0000000000
                         H #2 y     0.0000000000
                         CL#3 x     0.0000000000
                         CL#3 y     0.0000000000


 O #1       0.0000000000            0.0000000000           -0.0924381425
 H #2       0.0000000000            0.0000000000            0.0069987685
 CL#3       0.0000000000            0.0000000000            0.0854393741


 Evaluation of 2e integral derivatives required  103.55 seconds.
  contribution to Hessian
        0.0000000000        0.0000000000        0.0000000000
        0.0000000000        0.0000000000        0.0000000000
       -0.0924381425        0.0069987685        0.0854393741
 @CHECKOUT-I, Total execution time (CPU/WALL):      103.66/      20.19 seconds.
--executable xvdint finished with status     0 in       20.29 seconds (walltime).
 --invoking executable--
/home/asmola/.local/bin/xanti
 @GETMEM-I,  Allocated    3814 MB of main memory.
 CCSD MO gammas will be sorted to Mulliken order.
 @CHECKOUT-I, Total execution time (CPU/WALL):        9.67/      19.29 seconds.
--executable xanti finished with status     0 in       19.37 seconds (walltime).
 --invoking executable--
/home/asmola/.local/bin/xbcktrn
 @GETMEM-I,  Allocated    3814 MB of main memory.
 CCSD MO gammas will be transformed to the AO basis.
 @CHECKOUT-I, Total execution time (CPU/WALL):       18.44/       2.63 seconds.
--executable xbcktrn finished with status     0 in        2.70 seconds (walltime).
 --invoking executable--
/home/asmola/.local/bin/xvdint
 @GETMEM-I,  Allocated    3814 MB of main memory.
 One- and two-electron integral derivatives are calculated
 for RHF-CC/MBPT hessians and dipole derivatives.
 Spherical gaussians are used.
  magnet F F

                     Kinetic energy integral gradient
                     --------------------------------

                         O #1 x     0.1262141253
                         O #1 y    -0.3767877119
                         H #2 x     0.2105996100
                         H #2 y     0.3968981492
                         CL#3 x    -0.3368137353
                         CL#3 y    -0.0201104373


 O #1       0.1262141253           -0.3767877119            0.0000000000
 H #2       0.2105996100            0.3968981492            0.0000000000
 CL#3      -0.3368137353           -0.0201104373            0.0000000000



                   Nuclear attraction integral gradient
                   ------------------------------------

                         O #1 x   -23.8716046607
                         O #1 y     5.5819603658
                         H #2 x    -3.9759911768
                         H #2 y    -5.5995603237
                         CL#3 x    27.8475958375
                         CL#3 y     0.0175999579


 O #1     -23.8716046607            5.5819603658            0.0000000000
 H #2      -3.9759911768           -5.5995603237            0.0000000000
 CL#3      27.8475958375            0.0175999579            0.0000000000



                      Reorthonormalization gradient
                      -----------------------------

                         O #1 x     0.0000000000
                         O #1 y     0.0000000000
                         H #2 x     0.0000000000
                         H #2 y     0.0000000000
                         CL#3 x     0.0000000000
                         CL#3 y     0.0000000000


 O #1       0.0000000000            0.0000000000            0.0000000000
 H #2       0.0000000000            0.0000000000            0.0000000000
 CL#3       0.0000000000            0.0000000000            0.0000000000



                     Kinetic energy integral Hessian
                     -------------------------------


           Symmetry 1

           O #1 x      O #1 y      H #2 x      H #2 y      CL#3 x      CL#3 y

 O #1 x    0.150510
 O #1 y    0.320057    0.128068
 H #2 x    0.213355   -0.317168   -0.214204
 H #2 y   -0.317168   -0.340000    0.326644    0.344645
 CL#3 x   -0.363864   -0.002888    0.000849   -0.009476    0.363015
 CL#3 y   -0.002888    0.211932   -0.009476   -0.004645    0.012364   -0.207287


           Symmetry 2

           O #1 z      H #2 z      CL#3 z

 O #1 z   -0.590620
 H #2 z    0.386882   -0.389839
 CL#3 z    0.203738    0.002957   -0.206695




           O #1 x      O #1 y      O #1 z      H #2 x      H #2 y      H #2 z

 O #1 x    0.150510
 O #1 y    0.320057    0.128068
 O #1 z    0.000000    0.000000   -0.590620

 H #2 x    0.213355   -0.317168    0.000000   -0.214204
 H #2 y   -0.317168   -0.340000    0.000000    0.326644    0.344645
 H #2 z    0.000000    0.000000    0.386882    0.000000    0.000000   -0.389839

 CL#3 x   -0.363864   -0.002888    0.000000    0.000849   -0.009476    0.000000
 CL#3 y   -0.002888    0.211932    0.000000   -0.009476   -0.004645    0.000000
 CL#3 z    0.000000    0.000000    0.203738    0.000000    0.000000    0.002957


           CL#3 x      CL#3 y      CL#3 z

 CL#3 x    0.363015
 CL#3 y    0.012364   -0.207287
 CL#3 z    0.000000    0.000000   -0.206695




                   Nuclear attraction integral Hessian
                   -----------------------------------


           Symmetry 1

           O #1 x      O #1 y      H #2 x      H #2 y      CL#3 x      CL#3 y

 O #1 x  -10.743620
 O #1 y   -1.592644    8.960032
 H #2 x   -3.428827    2.671268    2.970098
 H #2 y    2.648330    1.235410   -3.396917   -1.381183
 CL#3 x   14.172447   -1.078624    0.458730    0.748587  -14.631177
 CL#3 y   -1.055686  -10.195442    0.725650    0.145772    0.330037   10.049670


           Symmetry 2

           O #1 z      H #2 z      CL#3 z

 O #1 z   14.519957
 H #2 z   -4.855067    5.242822
 CL#3 z   -9.664890   -0.387756   10.052646




           O #1 x      O #1 y      O #1 z      H #2 x      H #2 y      H #2 z

 O #1 x  -10.743620
 O #1 y   -1.592644    8.960032
 O #1 z    0.000000    0.000000   14.519957

 H #2 x   -3.428827    2.671268    0.000000    2.970098
 H #2 y    2.648330    1.235410    0.000000   -3.396917   -1.381183
 H #2 z    0.000000    0.000000   -4.855067    0.000000    0.000000    5.242822

 CL#3 x   14.172447   -1.078624    0.000000    0.458730    0.748587    0.000000
 CL#3 y   -1.055686  -10.195442    0.000000    0.725650    0.145772    0.000000
 CL#3 z    0.000000    0.000000   -9.664890    0.000000    0.000000   -0.387756


           CL#3 x      CL#3 y      CL#3 z

 CL#3 x  -14.631177
 CL#3 y    0.330037   10.049670
 CL#3 z    0.000000    0.000000   10.052646




                Highest order reorthonormalization Hessian
                ------------------------------------------


           Symmetry 1

           O #1 x      O #1 y      H #2 x      H #2 y      CL#3 x      CL#3 y

 O #1 x    0.000000
 O #1 y    0.000000    0.000000
 H #2 x    0.000000    0.000000    0.000000
 H #2 y    0.000000    0.000000    0.000000    0.000000
 CL#3 x    0.000000    0.000000    0.000000    0.000000    0.000000
 CL#3 y    0.000000    0.000000    0.000000    0.000000    0.000000    0.000000


           Symmetry 2

           O #1 z      H #2 z      CL#3 z

 O #1 z    0.000000
 H #2 z    0.000000    0.000000
 CL#3 z    0.000000    0.000000    0.000000




           O #1 x      O #1 y      O #1 z      H #2 x      H #2 y      H #2 z


           CL#3 x      CL#3 y      CL#3 z




                Electronic contributions to dipole moment
                -----------------------------------------

                               au             Debye

                    x      1.71448951      4.35779841
                    y      0.27366267      0.69558124

  Conversion factor used: 1 a.u. =   2.54174691 Debye 



   Electronic contributions to static part of dipole moment derivatives
   --------------------------------------------------------------------


                     Total dipole moment derivatives
                     -------------------------------


           Symmetry 1
                              Ex             Ey

               O #1 x    -8.89036324    -0.07630489
               O #1 y    -0.29856680    -8.83438620
               H #2 x    -0.31104975     0.11752576
               H #2 y     0.37588575    -0.30531645
               CL#3 x   -16.79858701    -0.04122088
               CL#3 y    -0.07731895   -16.86029735

           Symmetry 2
                              Ez

               O #1 z    -8.45455025
               H #2 z    -0.66850549
               CL#3 z   -16.87694427



                       Ex          Ey          Ez

      O #1    x   -8.890363   -0.076305    0.000000
      O #1    y   -0.298567   -8.834386    0.000000
      O #1    z    0.000000    0.000000   -8.454550

      H #2    x   -0.311050    0.117526    0.000000
      H #2    y    0.375886   -0.305316    0.000000
      H #2    z    0.000000    0.000000   -0.668505

      CL#3    x  -16.798587   -0.041221    0.000000
      CL#3    y   -0.077319  -16.860297    0.000000
      CL#3    z    0.000000    0.000000  -16.876944

 Evaluation of 1e integral derivatives required    1.67 seconds.
 Evaluation of 2el integral derivatives

                      Two-electron integral gradient
                      ------------------------------

                         O #1 x    10.9306742776
                         O #1 y    -2.5426295390
                         H #2 x     2.1431598022
                         H #2 y     2.7652449870
                         CL#3 x   -13.0738340798
                         CL#3 y    -0.2226154479


 O #1      10.9306742776           -2.5426295390            0.0000000000
 H #2       2.1431598022            2.7652449870            0.0000000000
 CL#3     -13.0738340798           -0.2226154479            0.0000000000


 Evaluation of 2e integral derivatives required  288.40 seconds.

                            Molecular gradient
                            ------------------

                         O #1 x    -0.0095156724
                         O #1 y     0.2800012312
                         H #2 x    -0.1551846669
                         H #2 y    -0.3026626438
                         CL#3 x     0.1647003393
                         CL#3 y     0.0226614126


 O #1      -0.0095156724            0.2800012312            0.0000000000
 H #2      -0.1551846669           -0.3026626438            0.0000000000
 CL#3       0.1647003393            0.0226614126            0.0000000000


  Molecular gradient norm 0.471E+00

                            Molecular hessian
                            -----------------


           Symmetry 1

           O #1 x      O #1 y      H #2 x      H #2 y      CL#3 x      CL#3 y

 O #1 x    2.467686
 O #1 y    2.012231    7.955513
 H #2 x   -0.686064   -3.365510    0.891513
 H #2 y   -2.249192   -8.042452    2.459629    7.761491
 CL#3 x   -1.781621    0.468159   -0.224167   -0.088133    2.005788
 CL#3 y    0.236961    0.086938   -0.100076    0.071893   -0.136885   -0.158831


           Symmetry 2

           O #1 z      H #2 z      CL#3 z

 O #1 z   -1.031054
 H #2 z    1.115311   -1.166744
 CL#3 z   -0.084257   -0.004123    0.088379




           O #1 x      O #1 y      O #1 z      H #2 x      H #2 y      H #2 z

 O #1 x    2.467686
 O #1 y    2.012231    7.955513
 O #1 z    0.000000    0.000000   -1.031054

 H #2 x   -0.686064   -3.365510    0.000000    0.891513
 H #2 y   -2.249192   -8.042452    0.000000    2.459629    7.761491
 H #2 z    0.000000    0.000000    1.115311    0.000000    0.000000   -1.166744

 CL#3 x   -1.781621    0.468159    0.000000   -0.224167   -0.088133    0.000000
 CL#3 y    0.236961    0.086938    0.000000   -0.100076    0.071893    0.000000
 CL#3 z    0.000000    0.000000   -0.084257    0.000000    0.000000   -0.004123


           CL#3 x      CL#3 y      CL#3 z

 CL#3 x    2.005788
 CL#3 y   -0.136885   -0.158831
 CL#3 z    0.000000    0.000000    0.088379




                           Total dipole moment
                           -------------------

                               au             Debye

                    x     -0.20268873     -0.51518347
                    y     -0.62173567     -1.58029472

  Conversion factor used: 1 a.u. =   2.54174691 Debye 



                     Total dipole moment derivatives
                     -------------------------------


           Symmetry 1
                              Ex             Ey

               O #1 x    -0.41883300    -0.04175137
               O #1 y    -0.09644206    -0.14085659
               H #2 x     0.23528815    -0.00478545
               H #2 y     0.04397457     0.16747366
               CL#3 x     0.18354504     0.04653673
               CL#3 y     0.05246757    -0.02661708

           Symmetry 2
                              Ez

               O #1 z    -0.32151762
               H #2 z     0.31613971
               CL#3 z     0.00537806



                       Ex          Ey          Ez

      O #1    x   -0.418833   -0.041751    0.000000
      O #1    y   -0.096442   -0.140857    0.000000
      O #1    z    0.000000    0.000000   -0.321518

      H #2    x    0.235288   -0.004785    0.000000
      H #2    y    0.043975    0.167474    0.000000
      H #2    z    0.000000    0.000000    0.316140

      CL#3    x    0.183545    0.046537    0.000000
      CL#3    y    0.052468   -0.026617    0.000000
      CL#3    z    0.000000    0.000000    0.005378

  Molecular gradient does not satisfy rotational invariance condition.
   rotational invariance in yz-plane :        0.0000E+00
   rotational invariance in xz-plane :        0.0000E+00
   rotational invariance in xy-plane :        -.5630E-02
 @CHECKOUT-I, Total execution time (CPU/WALL):      290.15/      42.48 seconds.
--executable xvdint finished with status     0 in       42.57 seconds (walltime).
 --invoking executable--
/home/asmola/.local/bin/xjoda
  @GTFLGS-I, Hessian will be transformed to curvilinear coordinates.
  @GTFLGS-I, Hessian will be transformed to curvilinear coordinates.
  igrd and ihes are                      0                     1
  gradient from JOBARC 
  -0.009515672446155   0.280001231235684   0.000000000000000
  -0.155184666879069  -0.302662643844094   0.000000000000000
   0.164700339325240   0.022661412608397   0.000000000000000
 
  @PROJFCM-I, Projecting force constant matrix onto totally symmetric subspace.
  Largest difference between matrix elements of symmetrized
  and unsymmetrized FCM :     0.0000000000E+00.
 
  Summary of diagonal Born-Oppenheimer correction at the correlated level
  The total diagonal Born-Oppenheimer correction (DBOC) is:      0.0087218259 a.u.
  The total diagonal Born-Oppenheimer correction (DBOC) is:       1914.219533 cm-1
  The total diagonal Born-Oppenheimer correction (DBOC) is:            22.899 kJ/mole
  hellooooooo 
  readis is  F
 
 @CHECKOUT-I, Total execution time (CPU/WALL):        0.01/       0.04 seconds.
--executable xjoda finished with status     0 in        0.08 seconds (walltime).
  The final electronic energy is      -535.763369078179608 a.u. 
  This computation required                         2855.42 seconds (walltime).
