 --invoking executable--
/home/asmola/.local/bin/xjoda


   *************************************************************************
         <<<     CCCCCC     CCCCCC   |||     CCCCCC     CCCCCC   >>>
       <<<      CCC        CCC       |||    CCC        CCC         >>>
      <<<      CCC        CCC        |||   CCC        CCC            >>>
    <<<        CCC        CCC        |||   CCC        CCC              >>>
      <<<      CCC        CCC        |||   CCC        CCC            >>>
       <<<      CCC        CCC       |||    CCC        CCC         >>>
         <<<     CCCCCC     CCCCCC   |||     CCCCCC     CCCCCC   >>>
   *************************************************************************

     ****************************************************************
     * CFOUR Coupled-Cluster techniques for Computational Chemistry *
     ****************************************************************
 

   Department of Chemistry                Institut fuer Physikalische Chemie
   University of Florida                  Universitaet Mainz
   Gainesville, FL 32611, USA             D-55099 Mainz, Germany

   Department of Chemistry                Fakultaet fuer Chemie und Biowiss.
   Johns Hopkins University               Karlsruher Institut fuer Technologie
   Baltimore, MD 21218, USA               D-76131 Karlsruhe, Germany

   Department of Chemistry                Department of Physical Chemistry
   Southern Methodist University          Eotvos Lorand University
   Dallas, TX 75275, USA                  H-1053 Budapest, Hungary

 
                       Version 2.1
 
                     vincent.theory.phys.ucl.ac.uk                     
                     Thu 30 Jan 08:34:56 GMT 2025                      
                     integer*8 version is running
 
********************************************************************************
*                          Input from ZMAT file                                *
********************************************************************************
Hypochlorous acid DBOC calculation                                              
O                                                                               
H 1 ROH                                                                         
CL 1 ROCL 2 A                                                                   
                                                                                
ROH=1.3000000000000005                                                          
ROCL=1.683                                                                      
A=107.0                                                                         
                                                                                
                                                                                
*CFOUR(CALC=CCSD,BASIS=AUG-PCVTZ,SCF_CONV=10                                    
CC_CONV=10,DBOC=ON,MEMORY=500000000)                                            
********************************************************************************
  @GTFLGS-I, Hessian will be transformed to curvilinear coordinates.
    -------------------------------------------------------------------
                    CFOUR Control Parameters 
    -------------------------------------------------------------------
        External           Internal           Value            Units
          Name               Name
    -------------------------------------------------------------------
       ABCDTYPE             IABCDT         STANDARD    [  0]    ***   
       ANHARMONIC           IANHAR         OFF         [  0]    ***   
       ANH_ALGORIT          IANALG         STANDARD    [  0]    ***   
       ANH_DERIVAT          IANDER         SECOND      [  1]    ***   
       ANH_MODE             ANHMOD         VIBRATION   [  0]    ***   
       ANH_STEPSIZ          ICUBST             50000          x 10-6  
       ANH_SYMMETR          IANHSM         ABELIAN     [  0]    ***   
       AO_LADDERS           IAOLAD         SINGLEPASS  [  1]    ***   
       AV_SCF               IAVSCF         OFF         [  0]    ***   
       BASIS                IBASIS         AUG-PCVTZ   [ 51]    ***   
       BOTHVECTORS          BOTHVC         OFF         [  0]    ***   
       BOX_POTENT           IPIAB          OFF         [  0]    ***   
       BREIT                IBREIT         OFF         [  0]    ***   
       BRUCK_CONV           IBRTOL          10D-  4             ***   
       BRUECKNER            IBRKNR         OFF         [  0]    ***   
       BUFFERSIZE           IBUFFS              4096            ***   
       CACHE_RECS           ICHREC             10               ***   
       CALCLEVEL            ICLLVL         CCSD        [ 10]    ***   
       CCORBOPT             ICCORB         OFF         [  0]  x 0.01  
       CC_CONV              ICCCNV          10D- 10             ***   
       CC_EXPORDER          ICCEOR              5               ***   
       CC_EXTRAPOL          ICCEXT         DIIS        [  1]    ***   
       CC_GUESS             ICCGES         MP2         [  0]    ***   
       CC_MAXCYC            ICCCYC            100              cycles 
       CC_PROGRAM           ICCPRO         VCC         [  0]    ***   
       CHARGE               ICHRGE              0               ***   
       CHOLESKY             ICHOLE         OFF         [  0]    ***   
       CIS_CONV             ICISTL              5               ***   
       COMM_SIZE            IPSIZE            ***               ***   
       CONSTANT             ICONST         OLD         [  1]    ***   
       CONTINUUM            ICONTU         NONE        [  0]    ***   
       CONTRACTION          ICNTYP         GENERAL     [  1]    ***   
       COORDINATES          ICOORD         INTERNAL    [  0]    ***   
       CPHF_CONVER          ICPHFT          10D- 16             ***   
       CPHF_MAXCYC          ICPHFC             64              cycles 
       CUBIC                ICUBIC         OFF         [  0]    ***   
       CURVILINEAR          ICURVY         ON          [  1]    ***   
       DBOC                 IDBOC          ON          [  1]    ***   
       DCT                  IDCT           OFF         [  0]    ***   
       DERIV_LEV            IDRLVL         SECOND      [  2]    ***   
       DEVMEM_SIZE          IDVMEM          50000000           MByte  
       DIAG_MRCC            IEOMST          10D-  0             ***   
       DIFF_TYPE            IDIFTY         RELAXED     [  0]    ***   
       DIRECT               IDIRCT         OFF         [  0]    ***   
       DROPMO               IDRPMO      NONE         
       ECP                  IECP           OFF         [  0]    ***   
       EIGENVECTOR          IVEC                1               ***   
       EL_ANHARM            IELANH         OFF         [  0]    ***   
       EOMFOLLOW            IEOMSR         ENERGY      [  0]    ***   
       EOMIP                IEOMIP         OFF         [  0]    ***   
       EOMLEVEL             HBARFM         SAME        [  0]    ***   
       EOM_MRCC             IMRCCE         NEW         [  1]    ***   
       EOM_NONIT            EOMNON         OFF         [  0]    ***   
       EOM_NSING            IEOMSI          10D-  0             ***   
       EOM_NSTATES          IMRCCD         DAVIDSON    [  0]    ***   
       EOM_NTRIP            IEOMTR          10D-  0             ***   
       EOM_ORDER            IEXORD         ENERGY      [  0]    ***   
       EOM_PROPSTA          IEOMST              0               ***   
       ESTATE_CONV          IEXTOL          10D-  5             ***   
       ESTATE_DIAG          IEXDIG         ITERATIVE   [  0]    ***   
       ESTATE_LOCK          IESLOC         ON          [  1]    ***   
       ESTATE_MAXC          IEXMXC             40               ***   
       ESTATE_PROP          IEXPRP         OFF         [  0]    ***   
       EVAL_HESS            IRECAL              0            # of cyc.
       EXCITATION           IEXCIT              0               ***   
       EXCITE               IEXCIT         NONE        [  0]    ***   
       EXTERN_POT           IEXPOT         OFF         [  0]    ***   
       FCGRADNEW            IFCGNW         OFF         [  0]    ***   
       FC_FIELD             IFINFC              0             x 10-6  
       FD_CALTYPE           IFDCAL         GRADONLY    [  0]    ***   
       FD_PROJECT           IFDPRJ         OFF         [  1]    ***   
       FD_STEPSIZE          IDISFD              0            10-4 bohr
       FD_USEGROUP          IFDGRP         FULL        [  0]    ***   
       FILE_RECSIZ          IFLREC              4096           words  
       FINITE_PERT          IFIPER              0             x 10-6  
       FIXGEOM              IFIXGM         OFF         [  0]    ***   
       FOCK                 IFOCK          AO          [  1]    ***   
       FREQ_ALGORI          IVIALG         STANDARD    [  0]    ***   
       FROZEN_CORE          IFROCO         OFF         [  0]    ***   
       GAMMA_ABCD           IGABCD         STORE       [  0]    ***   
       GAMMA_ABCI           IGABCI         STORE       [  0]    ***   
       GENBAS_1             IGNBS1              0               ***   
       GENBAS_2             IGNBS2              0               ***   
       GENBAS_3             IGNBS3              0               ***   
       GENBAS_4             IGNBS4              0               ***   
       GEO_CONV             ICONTL              5              H/bohr 
       GEO_MAXCYC           IOPTCY             50               ***   
       GEO_MAXSTEP          IMXSTP            300            millibohr
       GEO_METHOD           INR            SINGLE_POINT[  5]    ***   
       GIAO                 IGIAO          OFF         [  1]    ***   
       GIMIC                IGIMIC         OFF         [  0]    ***   
       GRID                 IGRID          OFF         [  0]    ***   
       GRID_ALGO            IGALGO         SERIAL      [  0]    ***   
       GUESS                IGUESS         MOREAD      [  0]    ***   
       HBAR                 IHBAR          OFF         [  0]    ***   
       HESS_TYPE            IHESTP         SCF         [  0]    ***   
       HF2_FILE             IHF2Fl         USE         [  1]    ***   
       HFSTABILITY          ISTABL         OFF         [  0]    ***   
       INCORE               INCORE         OFF         [  0]    ***   
       INPUT_MRCC           IMRCC          ON          [  1]    ***   
       INTEGRALS            INTTYP         VMOL        [  1]    ***   
       JODA_PRINT           IJPRNT              0               ***   
       KEYWORD_OUT          IDMPKW         NO          [  0]    ***   
       LINDEP_TOL           ILINDP              8               ***   
       LINEQ_CONV           IZTACN          10D-  7           cycles  
       LINEQ_EXPOR          ILMAXD              5               ***   
       LINEQ_MAXCY          ILMAXC            100               ***   
       LINEQ_TYPE           ILTYPE         DIIS        [  1]    ***   
       LOCK_ORBOCC          ILOCOC         OFF         [  0]    ***   
       MEMORY_SIZE          IMEMSZ         500000000           words  
       MEM_UNIT             IMEMU          INTEGERWORDS[  0]    ***   
       MRCC                 IMRCCC         OFF         [  0]    ***   
       MULTIPLICTY          IMULTP              1               ***   
       NACOUPLING           IVCOUP         OFF         [  0]    ***   
       NEGEVAL              IDIE           ABORT       [  0]    ***   
       NEWNORM              INEWNO         OFF         [  0]    ***   
       NON-HF               INONHF         OFF         [  0]    ***   
       NTOP_TAMP            ITOPT2             15               ***   
       NUC_MODEL            INUCMO         POINT       [  0]    ***   
       OCCUPATION           IOCCU   ESTIMATED BY SCF 
       OPEN-SHELL           IOPEN          SPIN-ORBITAL[  0]    ***   
       OPTVIB               IOPTVB         OFF         [  0]    ***   
       ORBITALS             IORBTP         STANDARD    [  0]    ***   
       PARALLEL             IPARAL         ON          [  1]    ***   
       PARA_INT             IPINTS         ON          [  1]    ***   
       PARA_PRINT           IPPRIN              0               ***   
       PERT_ORB             IPTORB         STANDARD    [  0]    ***   
       POINTS               IGRDFD              0               ***   
       PRINT                IPRNT               0               ***   
       PROPS                IPROPS         OFF         [  0]    ***   
       PROP_INTEGR          IINTYP         INTERNAL    [  0]    ***   
       PSI                  IPSI           OFF         [  0]    ***   
       QC_ALG               IQCALG         FLM         [  0]    ***   
       QC_LINALG            IQCLIN         TRIDIAG     [  2]    ***   
       QC_MAXCYC            IQCMAX          10D-100           cycles  
       QC_MAXSCFCY          IQCMSC          10D- 15           cycles  
       QC_RTRUST            IQCRTR          10D-  0           x 10-3  
       QC_SKIPSCF           IQCSKI         OFF         [  0]    ***   
       QC_START             IQCSTA          10D-  1             ***   
       QRHFGUESS            IQGUES         OFF         [  0]    ***   
       QUARTIC              IQUART         OFF         [  0]    ***   
       RAMAN_INT            IRAMIN         OFF         [  0]    ***   
       RAMAN_ORB            IRAMRE         UNRELAXED   [  0]    ***   
       RDO                  IRDOFM         ON          [  1]    ***   
       REDUCE_REPR          REDREP         Ir          [  0]    ***   
       REFERENCE            IREFNC         RHF         [  0]    ***   
       RELATIVIST           IRELAT         OFF         [  0]    ***   
       RELAX_DENS           IRDENS         ON          [  1]    ***   
       RESET_FLAGS          IRESET         OFF         [  0]    ***   
       RESTART_CC           ICCRES         OFF         [  0]    ***   
       ROT_EVEC             ROTVEC              0               ***   
       SAVE_INTS            ISVINT         OFF         [  0]    ***   
       SCALE_ON             ISTCRT              0               ***   
       SCF_CONV             ISCFCV          10D- 10             ***   
       SCF_DAMPING          IDAMP               0             x 10-3  
       SCF_EXPORDE          IRPPOR              6               ***   
       SCF_EXPSTAR          IRPPLS              8               ***   
       SCF_EXTRAPO          IRPP           ON          [  1]    ***   
       SCF_MAXCYC           ISCFCY            150              cycles 
       SCF_NOSTOP           ISCFST         OFF         [  0]    ***   
       SCF_PRINT            ISCFPR              0               ***   
       SCF_PROG             ISCFPR         SCF         [  0]    ***   
       SD_FIELD             IFINSD              0             x 10-6  
       SOPERT               IPERSO         OFF         [  0]    ***   
       SPHERICAL            IDFGHI         ON          [  1]    ***   
       SPINORBIT            ISOCAL         OFF         [  0]    ***   
       SPINROTATIO          ISRCON         OFF         [  0]    ***   
       SPIN_FLIP            ISPFLP         OFF         [  0]    ***   
       SPIN_ORBIT           ISPORB         OFF         [  0]    ***   
       SPIN_SCAL            ISCSMP         OFF         [  0]    ***   
       STEEPSCALE           ISTPSC              1000          x 10-3  
       SUBGROUP             ISUBGP         DEFAULT     [  0]    ***   
       SUBGRPAXIS           ISBXYZ         X           [  0]    ***   
       SYMMETRY             ISYM           ON          [  0]    ***   
       SYM_CHECK            ISYMCK         OVERRIDE    [  1]    ***   
       T3_EXTRAPOL          IT3EXT         OFF         [  0]    ***   
       T4_EXTRAPOL          IT4EXP         OFF         [  0]    ***   
       TAMP_SUM             IEVERY              5               ***   
       TESTSUITE            ITESTS         OFF         [  0]    ***   
       THERMOCH             ITHERM         OFF         [  0]    ***   
       TOL_CHOLESK          ITOLCH          10D-  4             ***   
       TRANGRAD             IRESRM         OFF         [  0]    ***   
       TRANS_INV            ITRAIN         IGNORE      [  1]    ***   
       TREAT_PERT           ITREAT         SIMULTANEOUS[  0]    ***   
       TRIP_ALGORI          ITRALG         NORMAL      [  0]    ***   
       UIJ_THRESHO          IUIJTH              1               ***   
       UNITS                IUNITS         ANGSTROM    [  0]    ***   
       UNOS                 IUNOS          OFF         [  0]    ***   
       UPDATE_HESS          IHUPDT         ON          [  1]    ***   
       VIBPHASE             ISETPH         STANDARD    [  0]    ***   
       VIBRATION            IVIB           ANALYTIC    [  1]    ***   
       VIB_ALGORIT          IGEALG         STANDARD    [  0]    ***   
       VNATORB              IVNORB         OFF         [  0]    ***   
       VTRAN                IVTRAN         FULL/PARTIAL[  0]    ***   
       XFIELD               IXEFLD              0             x 10-6  
       XFORM_TOL            IXFTOL          10D- 11             ***   
       YFIELD               IYEFLD              0             x 10-6  
       ZFIELD               IZEFLD              0             x 10-6  
       ZSCALE_EXP           IZEXPS         OFF         [  0]    ***   
    -------------------------------------------------------------------
   3 entries found in Z-matrix 
   Job Title : Hypochlorous acid DBOC calculation                                              
   There are  3 unique internal coordinates.
   Of these,  0 will be optimized.
   User supplied Z-matrix: 
--------------------------------------------------------------------------------
       SYMBOL    BOND      LENGTH    ANGLE     ANGLE     DIHED     ANGLE
                  TO      (ANGST)    WRT      (DEG)      WRT      (DEG)
--------------------------------------------------------------------------------
        O    
        H          1         ROH  
        CL         1         ROCL       2        A    
                  *Initial values for internal coordinates* 
                      Name             Value
                        ROH             1.3000000000
                        ROCL            1.6830000000
                        A             107.0000000000
--------------------------------------------------------------------------------
   Rotational constants (in cm-1): 
          0.4824456495             0.5028264639            11.9026862717
   Rotational constants (in MHz): 
      14463.3587375255         15074.3602681247        356833.6074097055
********************************************************************************
   The full molecular point group is C s .
   The largest Abelian subgroup of the full molecular point group is C s .
   The computational point group is C s .
********************************************************************************
--------------------------------------------------------------------------------
   Analysis of internal coordinates specified by Z-matrix 
--------------------------------------------------------------------------------
   *The nuclear repulsion energy is   49.753055146929619 a.u.
   *There are   3 degrees of freedom within the tot. symm. molecular subspace.
   *Z-matrix requests optimization of   0 coordinates.
   *The optimization is constrained.
   *The following   3 parameters can have non-zero 
    derivatives within the totally symmetric subspace:
             A    [ 3]  ROH  [ 1]  ROCL [ 2]
   *The following   0 parameters are to be optimized:

   *The following coordinates must be varied in an  unconstrained optimization.
             A    [ 3]  ROH  [ 1]  ROCL [ 2]
--------------------------------------------------------------------------------


 ----------------------------------------------------------------
         Coordinates used in calculation (QCOMP) 
 ----------------------------------------------------------------
 Z-matrix   Atomic            Coordinates (in bohr)
  Symbol    Number           X              Y              Z
 ----------------------------------------------------------------
     O         8        -2.11963350     0.17055493     0.00000000
     H         1        -2.97485677    -2.13242037     0.00000000
     CL       17         1.05526745    -0.01655488     0.00000000
 ----------------------------------------------------------------
 
   Interatomic distance matrix (Angstroms) 
 
                 O             H             CL   
                [ 1]        [ 2]        [ 3]
  O    [ 1]     0.00000
  H    [ 2]     1.30000     0.00000
  CL   [ 3]     1.68300     2.40870     0.00000
 rotcon2
   Rotational constants (in cm-1): 
         11.9026862717             0.5028264639             0.4824456495
   Rotational constants (in MHz): 
     356833.6074097051         15074.3602681247         14463.3587375255
  ECPDATA file not present.   Using default ECPDATA. 
  @GTFLGS-I, Hessian will be transformed to curvilinear coordinates.
  There are  157 basis functions.
 @CHECKOUT-I, Total execution time (CPU/WALL):        0.48/       0.74 seconds.
--executable xjoda finished with status     0 in        0.80 seconds (walltime).
 --invoking executable--
/home/asmola/.local/bin/xvmol
 SERIAL VERSION OF MOLECULE STARTED
********************************************************************************
                    INPUT FROM MOL FILE
********************************************************************************
INTGRL        1    0    1    0    0    0    0    0    0                         
         *** CFOUR Program System (Release V0.1) ***                            
Hypochlorous acid DBOC calculation                                              
    3    1 Z          0.10E-08              0    0                              
   9999.00      3.00                                                            
          8.00000000    1    4    1    1    1    1                              
O #1  -2.119633495825773   0.170554934838787   0.000000000000000                
   13    7                                                                      
   15330.0000000000       5.080000000000000E-004 -1.150000000000000E-004        
  0.000000000000000E+000  0.000000000000000E+000  0.000000000000000E+000        
  0.000000000000000E+000  0.000000000000000E+000                                
   2299.00000000000       3.929000000000000E-003 -8.950000000000000E-004        
  0.000000000000000E+000  0.000000000000000E+000  0.000000000000000E+000        
  0.000000000000000E+000  0.000000000000000E+000                                
   522.400000000000       2.024300000000000E-002 -4.636000000000000E-003        
  0.000000000000000E+000  0.000000000000000E+000  0.000000000000000E+000        
  0.000000000000000E+000  0.000000000000000E+000                                
   147.300000000000       7.918100000000000E-002 -1.872400000000000E-002        
  0.000000000000000E+000  0.000000000000000E+000  0.000000000000000E+000        
  0.000000000000000E+000  0.000000000000000E+000                                
   47.5500000000000       0.230687000000000      -5.846300000000000E-002        
  0.000000000000000E+000  0.000000000000000E+000  0.000000000000000E+000        
  0.000000000000000E+000  0.000000000000000E+000                                
   16.7600000000000       0.433118000000000      -0.136463000000000             
  0.000000000000000E+000  0.000000000000000E+000  0.000000000000000E+000        
  0.000000000000000E+000  0.000000000000000E+000                                
   6.20700000000000       0.350260000000000      -0.175740000000000             
  0.000000000000000E+000  0.000000000000000E+000  0.000000000000000E+000        
  0.000000000000000E+000  0.000000000000000E+000                                
   1.75200000000000       4.272800000000000E-002  0.160934000000000             
   1.00000000000000       0.000000000000000E+000  0.000000000000000E+000        
  0.000000000000000E+000  0.000000000000000E+000                                
  0.688200000000000      -8.154000000000000E-003  0.603418000000000             
  0.000000000000000E+000  0.000000000000000E+000  0.000000000000000E+000        
  0.000000000000000E+000  0.000000000000000E+000                                
  0.238400000000000       2.381000000000000E-003  0.378765000000000             
  0.000000000000000E+000   1.00000000000000       0.000000000000000E+000        
  0.000000000000000E+000  0.000000000000000E+000                                
   7.84500000000000       0.000000000000000E+000  0.000000000000000E+000        
  0.000000000000000E+000  0.000000000000000E+000   1.00000000000000             
  0.000000000000000E+000  0.000000000000000E+000                                
   21.0320000000000       0.000000000000000E+000  0.000000000000000E+000        
  0.000000000000000E+000  0.000000000000000E+000  0.000000000000000E+000        
   1.00000000000000       0.000000000000000E+000                                
  7.376000000000001E-002  0.000000000000000E+000  0.000000000000000E+000        
  0.000000000000000E+000  0.000000000000000E+000  0.000000000000000E+000        
  0.000000000000000E+000   1.00000000000000                                     
    8    6                                                                      
   34.4600000000000       1.592800000000000E-002  0.000000000000000E+000        
  0.000000000000000E+000  0.000000000000000E+000  0.000000000000000E+000        
  0.000000000000000E+000                                                        
   7.74900000000000       9.974000000000000E-002  0.000000000000000E+000        
  0.000000000000000E+000  0.000000000000000E+000  0.000000000000000E+000        
  0.000000000000000E+000                                                        
   2.28000000000000       0.310492000000000       0.000000000000000E+000        
  0.000000000000000E+000  0.000000000000000E+000  0.000000000000000E+000        
  0.000000000000000E+000                                                        
  0.715600000000000       0.491026000000000        1.00000000000000             
  0.000000000000000E+000  0.000000000000000E+000  0.000000000000000E+000        
  0.000000000000000E+000                                                        
  0.214000000000000       0.336337000000000       0.000000000000000E+000        
   1.00000000000000       0.000000000000000E+000  0.000000000000000E+000        
  0.000000000000000E+000                                                        
   15.1590000000000       0.000000000000000E+000  0.000000000000000E+000        
  0.000000000000000E+000   1.00000000000000       0.000000000000000E+000        
  0.000000000000000E+000                                                        
   57.4370000000000       0.000000000000000E+000  0.000000000000000E+000        
  0.000000000000000E+000  0.000000000000000E+000   1.00000000000000             
  0.000000000000000E+000                                                        
  5.974000000000000E-002  0.000000000000000E+000  0.000000000000000E+000        
  0.000000000000000E+000  0.000000000000000E+000  0.000000000000000E+000        
   1.00000000000000                                                             
    4    4                                                                      
   2.31400000000000        1.00000000000000       0.000000000000000E+000        
  0.000000000000000E+000  0.000000000000000E+000                                
  0.645000000000000       0.000000000000000E+000   1.00000000000000             
  0.000000000000000E+000  0.000000000000000E+000                                
   15.8580000000000       0.000000000000000E+000  0.000000000000000E+000        
   1.00000000000000       0.000000000000000E+000                                
  0.214000000000000       0.000000000000000E+000  0.000000000000000E+000        
  0.000000000000000E+000   1.00000000000000                                     
    2    2                                                                      
   1.42800000000000        1.00000000000000       0.000000000000000E+000        
  0.500000000000000       0.000000000000000E+000   1.00000000000000             
          1.00000000    1    3    1    1    1                                   
H #2  -2.974856765467143  -2.132420367848965   0.000000000000000                
    6    4                                                                      
   33.8700000000000       6.068000000000000E-003  0.000000000000000E+000        
  0.000000000000000E+000  0.000000000000000E+000                                
   5.09500000000000       4.530800000000000E-002  0.000000000000000E+000        
  0.000000000000000E+000  0.000000000000000E+000                                
   1.15900000000000       0.202822000000000       0.000000000000000E+000        
  0.000000000000000E+000  0.000000000000000E+000                                
  0.325800000000000       0.503903000000000        1.00000000000000             
  0.000000000000000E+000  0.000000000000000E+000                                
  0.102700000000000       0.383421000000000       0.000000000000000E+000        
   1.00000000000000       0.000000000000000E+000                                
  2.526000000000000E-002  0.000000000000000E+000  0.000000000000000E+000        
  0.000000000000000E+000   1.00000000000000                                     
    3    3                                                                      
   1.40700000000000        1.00000000000000       0.000000000000000E+000        
  0.000000000000000E+000                                                        
  0.388000000000000       0.000000000000000E+000   1.00000000000000             
  0.000000000000000E+000                                                        
  0.102000000000000       0.000000000000000E+000  0.000000000000000E+000        
   1.00000000000000                                                             
    2    2                                                                      
   1.05700000000000        1.00000000000000       0.000000000000000E+000        
  0.247000000000000       0.000000000000000E+000   1.00000000000000             
         17.00000000    1    4    1    1    1    1                              
CL#3   1.055267447028309  -0.016554875140695   0.000000000000000                
   18    8                                                                      
   456100.000000000       4.930000000000000E-005 -1.380000000000000E-005        
  4.200000000000000E-006  0.000000000000000E+000  0.000000000000000E+000        
  0.000000000000000E+000  0.000000000000000E+000  0.000000000000000E+000        
   68330.0000000000       3.830000000000000E-004 -1.073000000000000E-004        
  3.240000000000000E-005  0.000000000000000E+000  0.000000000000000E+000        
  0.000000000000000E+000  0.000000000000000E+000  0.000000000000000E+000        
   15550.0000000000       2.008500000000000E-003 -5.651000000000000E-004        
  1.711000000000000E-004  0.000000000000000E+000  0.000000000000000E+000        
  0.000000000000000E+000  0.000000000000000E+000  0.000000000000000E+000        
   4405.00000000000       8.385600000000000E-003 -2.361400000000000E-003        
  7.142000000000000E-004  0.000000000000000E+000  0.000000000000000E+000        
  0.000000000000000E+000  0.000000000000000E+000  0.000000000000000E+000        
   1439.00000000000       2.947030000000000E-002 -8.458900000000000E-003        
  2.567000000000000E-003  0.000000000000000E+000  0.000000000000000E+000        
  0.000000000000000E+000  0.000000000000000E+000  0.000000000000000E+000        
   520.400000000000       8.783249999999999E-002 -2.596380000000000E-002        
  7.885500000000000E-003  0.000000000000000E+000  0.000000000000000E+000        
  0.000000000000000E+000  0.000000000000000E+000  0.000000000000000E+000        
   203.100000000000       0.211473000000000      -6.863619999999999E-002        
  2.108670000000000E-002  0.000000000000000E+000  0.000000000000000E+000        
  0.000000000000000E+000  0.000000000000000E+000  0.000000000000000E+000        
   83.9600000000000       0.365364000000000      -0.141874000000000             
  4.422640000000000E-002  0.000000000000000E+000  0.000000000000000E+000        
  0.000000000000000E+000  0.000000000000000E+000  0.000000000000000E+000        
   36.2000000000000       0.340884000000000      -0.199319000000000             
  6.516700000000000E-002  0.000000000000000E+000  0.000000000000000E+000        
  0.000000000000000E+000  0.000000000000000E+000  0.000000000000000E+000        
   15.8300000000000       0.102133000000000      -1.956620000000000E-002        
  6.030100000000000E-003  0.000000000000000E+000  0.000000000000000E+000        
  0.000000000000000E+000  0.000000000000000E+000  0.000000000000000E+000        
   6.33400000000000       3.116800000000000E-003  0.499741000000000             
 -0.206495000000000       0.000000000000000E+000  0.000000000000000E+000        
  0.000000000000000E+000  0.000000000000000E+000  0.000000000000000E+000        
   2.69400000000000       1.057500000000000E-003  0.563736000000000             
 -0.405871000000000       0.000000000000000E+000  0.000000000000000E+000        
  0.000000000000000E+000  0.000000000000000E+000  0.000000000000000E+000        
  0.976800000000000      -3.780000000000000E-004  7.903250000000001E-002        
  7.595580000000000E-002   1.00000000000000       0.000000000000000E+000        
  0.000000000000000E+000  0.000000000000000E+000  0.000000000000000E+000        
  0.431300000000000       1.561000000000000E-004 -8.350900000000000E-003        
  0.725661000000000       0.000000000000000E+000  0.000000000000000E+000        
  0.000000000000000E+000  0.000000000000000E+000  0.000000000000000E+000        
  0.162500000000000      -5.140000000000000E-005  2.324600000000000E-003        
  0.394423000000000       0.000000000000000E+000   1.00000000000000             
  0.000000000000000E+000  0.000000000000000E+000  0.000000000000000E+000        
   15.0640000000000       0.000000000000000E+000  0.000000000000000E+000        
  0.000000000000000E+000  0.000000000000000E+000  0.000000000000000E+000        
   1.00000000000000       0.000000000000000E+000  0.000000000000000E+000        
   2.87400000000000       0.000000000000000E+000  0.000000000000000E+000        
  0.000000000000000E+000  0.000000000000000E+000  0.000000000000000E+000        
  0.000000000000000E+000   1.00000000000000       0.000000000000000E+000        
  5.910000000000000E-002  0.000000000000000E+000  0.000000000000000E+000        
  0.000000000000000E+000  0.000000000000000E+000  0.000000000000000E+000        
  0.000000000000000E+000  0.000000000000000E+000   1.00000000000000             
   12    7                                                                      
   663.300000000000       2.404500000000000E-003 -6.521000000000000E-004        
  0.000000000000000E+000  0.000000000000000E+000  0.000000000000000E+000        
  0.000000000000000E+000  0.000000000000000E+000                                
   156.800000000000       1.921480000000000E-002 -5.194500000000000E-003        
  0.000000000000000E+000  0.000000000000000E+000  0.000000000000000E+000        
  0.000000000000000E+000  0.000000000000000E+000                                
   49.9800000000000       8.850970000000000E-002 -2.469380000000000E-002        
  0.000000000000000E+000  0.000000000000000E+000  0.000000000000000E+000        
  0.000000000000000E+000  0.000000000000000E+000                                
   18.4200000000000       0.256020000000000      -7.281670000000000E-002        
  0.000000000000000E+000  0.000000000000000E+000  0.000000000000000E+000        
  0.000000000000000E+000  0.000000000000000E+000                                
   7.24000000000000       0.436927000000000      -0.134030000000000             
  0.000000000000000E+000  0.000000000000000E+000  0.000000000000000E+000        
  0.000000000000000E+000  0.000000000000000E+000                                
   2.92200000000000       0.350334000000000      -9.477420000000000E-002        
  0.000000000000000E+000  0.000000000000000E+000  0.000000000000000E+000        
  0.000000000000000E+000  0.000000000000000E+000                                
   1.02200000000000       5.854950000000000E-002  0.262289000000000             
   1.00000000000000       0.000000000000000E+000  0.000000000000000E+000        
  0.000000000000000E+000  0.000000000000000E+000                                
  0.381800000000000      -4.584200000000000E-003  0.564667000000000             
  0.000000000000000E+000  0.000000000000000E+000  0.000000000000000E+000        
  0.000000000000000E+000  0.000000000000000E+000                                
  0.130100000000000       2.269700000000000E-003  0.341250000000000             
  0.000000000000000E+000   1.00000000000000       0.000000000000000E+000        
  0.000000000000000E+000  0.000000000000000E+000                                
   9.48000000000000       0.000000000000000E+000  0.000000000000000E+000        
  0.000000000000000E+000  0.000000000000000E+000   1.00000000000000             
  0.000000000000000E+000  0.000000000000000E+000                                
   3.66800000000000       0.000000000000000E+000  0.000000000000000E+000        
  0.000000000000000E+000  0.000000000000000E+000  0.000000000000000E+000        
   1.00000000000000       0.000000000000000E+000                                
  4.190000000000000E-002  0.000000000000000E+000  0.000000000000000E+000        
  0.000000000000000E+000  0.000000000000000E+000  0.000000000000000E+000        
  0.000000000000000E+000   1.00000000000000                                     
    5    5                                                                      
   1.04600000000000        1.00000000000000       0.000000000000000E+000        
  0.000000000000000E+000  0.000000000000000E+000  0.000000000000000E+000        
  0.344000000000000       0.000000000000000E+000   1.00000000000000             
  0.000000000000000E+000  0.000000000000000E+000  0.000000000000000E+000        
   17.9570000000000       0.000000000000000E+000  0.000000000000000E+000        
   1.00000000000000       0.000000000000000E+000  0.000000000000000E+000        
   5.76000000000000       0.000000000000000E+000  0.000000000000000E+000        
  0.000000000000000E+000   1.00000000000000       0.000000000000000E+000        
  0.135000000000000       0.000000000000000E+000  0.000000000000000E+000        
  0.000000000000000E+000  0.000000000000000E+000   1.00000000000000             
    3    3                                                                      
  0.706000000000000        1.00000000000000       0.000000000000000E+000        
  0.000000000000000E+000                                                        
   11.7790000000000       0.000000000000000E+000   1.00000000000000             
  0.000000000000000E+000                                                        
  0.312000000000000       0.000000000000000E+000  0.000000000000000E+000        
   1.00000000000000                                                             
FINISH                                                                          
 
********************************************************************************
 ONE- AND TWO-ELECTRON INTEGRALS OVER SYMMETRY-ADAPTED AOS ARE CALCULATED.

  SPHERICAL HARMONICS ARE USED.
  
  INTEGRALS LESS THAN  0.10E-13 ARE NEGLECTED.

  NUCLEAR REPULSION ENERGY :   49.7530551469 A.U.
  @MOLECU-I, ONE ELECTRON INTEGRALS (CPU/WALL):        0.04/       0.05 SECONDS.
  @TWOEL-I,   14223371 INTEGRALS OF SYMMETRY TYPE  I I I I
  @TWOEL-I,   13424944 INTEGRALS OF SYMMETRY TYPE  I J I J
  @TWOEL-I,    6937901 INTEGRALS OF SYMMETRY TYPE  I I J J
  @TWOEL-I, TOTAL NUMBER OF 2-E INTEGRALS   34586216.
  @MOLECU-I, TWO ELECTRON INTEGRALS (CPU/WALL):       60.77/      10.19 SECONDS.
 @CHECKOUT-I, Total execution time (CPU/WALL):       60.83/      10.25 seconds.

Running with 14 threads/proc

--executable xvmol finished with status     0 in       10.29 seconds (walltime).
 --invoking executable--
/home/asmola/.local/bin/xvmol2ja
 @GETMEM-I,  Allocated    3814 MB of main memory.
 @CHECKOUT-I, Total execution time (CPU/WALL):        0.25/       0.10 seconds.
--executable xvmol2ja finished with status     0 in        0.16 seconds (walltime).
 --invoking executable--
/home/asmola/.local/bin/xvscf
  There are  157 functions in the AO basis.

  There are 2 irreducible representations.

       Irrep        # of functions
         1                104
         2                 53


  Parameters for SCF calculation: 
        SCF reference function:  RHF  
  Maximum number of iterations:  150
     Full symmetry point group: C s 
     Computational point group: C s 
        Initial density matrix: MOREAD                 
     SCF convergence tolerance: 10**(-10)
  DIIS convergence acceleration:  ON
          Latest start for DIIS:   8
                     DIIS order:   6

  Memory information:    1209746 words required.
  Fock matrices are constructed from AO integral file.
 @GETMEM-I,  Allocated       9 MB of main memory.
  Initialization and symmetry analysis required      0.001 seconds.

  @INITGES-I, Occupancies from core Hamiltonian:

          Alpha population by irrep:  10    3
           Beta population by irrep:  10    3


 total no. of electrons in initial guess :  0.000000000000000E+000
  --------------------------------------------------------------------
  Iteration         Total Energy            Largest Density Difference
  --------------------------------------------------------------------
       0            49.753055146929604              0.0000000000D+00
   current occupation vector 
    10  3
    10  3
       1          -365.952678205087466              0.1326115630D+02
   current occupation vector 
    10  3
    10  3
       2          -341.569936155881635              0.1323794502D+02
   current occupation vector 
    10  3
    10  3
       3          -421.900676369142275              0.1071702944D+02
   current occupation vector 
    10  3
    10  3
       4          -339.461666019627273              0.1072373528D+02
   current occupation vector 
    10  3
    10  3
       5          -421.726001349079581              0.1068008975D+02
   current occupation vector 
    10  3
    10  3
       6          -339.408031569162233              0.1068021995D+02
   current occupation vector 
    10  3
    10  3
       7          -421.720923176977010              0.1067897324D+02
   current occupation vector 
    10  3
    10  3
       8          -339.406690550434632              0.1067897655D+02
   current occupation vector 
    10  3
    10  3
       9          -444.996141858917213              0.8439036885D+01
   current occupation vector 
    10  3
    10  3
      10          -464.585992730324108              0.2160663939D+01
   current occupation vector 
    10  3
    10  3
      11          -470.303405656827010              0.6725423138D+00
   current occupation vector 
    10  3
    10  3
      12          -470.181455015680683              0.6027299866D-01
   current occupation vector 
    10  3
    10  3
      13          -473.279064190178531              0.3872919746D+00
   current occupation vector 
    10  3
    10  3
      14          -477.037098296268766              0.4789945870D+00
   current occupation vector 
    10  3
    10  3
      15          -507.298631568170947              0.7477493734D+01
   current occupation vector 
    10  3
    10  3
      16          -519.409926052194692              0.7477189403D+01
   current occupation vector 
    11  2
    11  2
      17          -524.695321044025832              0.4421103895D+01
   current occupation vector 
    11  2
    11  2
      18          -531.352408861633421              0.2041154876D+01
   current occupation vector 
    11  2
    11  2
      19          -534.624940364356462              0.2078085295D+01
   current occupation vector 
    10  3
    10  3
      20          -534.813337142278101              0.6515105510D+00
   current occupation vector 
    10  3
    10  3
      21          -534.853890331467255              0.2058295092D+00
   current occupation vector 
    10  3
    10  3
      22          -534.855929242432921              0.5449816005D-01
   current occupation vector 
    10  3
    10  3
      23          -534.856593311601614              0.4029761011D-01
   current occupation vector 
    10  3
    10  3
      24          -534.856638482105154              0.7531974143D-02
   current occupation vector 
    10  3
    10  3
      25          -534.856643812184757              0.2804876953D-02
   current occupation vector 
    10  3
    10  3
      26          -534.856644942653361              0.1572016205D-02
   current occupation vector 
    10  3
    10  3
      27          -534.856645152253122              0.5772027094D-03
   current occupation vector 
    10  3
    10  3
      28          -534.856645186803576              0.2748395771D-03
   current occupation vector 
    10  3
    10  3
      29          -534.856645191403118              0.1202011909D-03
   current occupation vector 
    10  3
    10  3
      30          -534.856645191569783              0.1608752272D-04
   current occupation vector 
    10  3
    10  3
      31          -534.856645191594907              0.3621401577D-05
   current occupation vector 
    10  3
    10  3
      32          -534.856645191594339              0.1177060106D-05
   current occupation vector 
    10  3
    10  3
      33          -534.856645191592293              0.3270237212D-06
   current occupation vector 
    10  3
    10  3
      34          -534.856645191598773              0.1464836727D-06
   current occupation vector 
    10  3
    10  3
      35          -534.856645191589678              0.5000143855D-07
   current occupation vector 
    10  3
    10  3
      36          -534.856645191595135              0.1342964895D-07
   current occupation vector 
    10  3
    10  3
      37          -534.856645191599341              0.5732989417D-08
   current occupation vector 
    10  3
    10  3
      38          -534.856645191599569              0.3518943262D-08
   current occupation vector 
    10  3
    10  3
      39          -534.856645191600251              0.8721177253D-09
   current occupation vector 
    10  3
    10  3
      40          -534.856645191597863              0.1004820713D-08
   current occupation vector 
    10  3
    10  3
      41          -534.856645191598432              0.1961256713D-09
   current occupation vector 
    10  3
    10  3
      42          -534.856645191597067              0.1267546346D-09
   current occupation vector 
    10  3
    10  3

  SCF has converged.

 Density matrix saved to file den.dat
 total electron number:   26.0000000000002     
     E(SCF)=      -534.856645191596499              0.3860217701D-10

  Eigenvector printing suppressed.

 @PUTMOS-I, Writing converged MOs to NEWMOS. 
 @PUTMOS-I, Symmetry   1 Full Blocks 26 Partial Blocksize   0
 @PUTMOS-I, Symmetry   2 Full Blocks 13 Partial Blocksize   1
 @PUTFOCK-I, Writing converged Fock matrix to NEWFOCK. 
 @PUTFOCK-I, Symmetry   1 Full Blocks 26 Partial Blocksize   0
 @PUTFOCK-I, Symmetry   2 Full Blocks 13 Partial Blocksize   1


 
  ORBITAL EIGENVALUES (ALPHA)  (1H = 27.2113834 eV)

       MO #        E(hartree)               E(eV)           FULLSYM    COMPSYM
       ----   --------------------   --------------------   -------   ---------
    1     1        -104.8843389248       -2854.0479591391     A'        A'  (1)
    2     2         -20.6588966386        -562.1571570537     A'        A'  (1)
    3     3         -10.6043000235        -288.5576736278     A'        A'  (1)
    4     4          -8.0710077357        -219.6232859196     A'        A'  (1)
    5     5          -8.0687384816        -219.5615363764     A'        A'  (1)
    6   105          -8.0685790058        -219.5571968188     A''       A'' (2)
    7     6          -1.3666751362         -37.1891211132     A'        A'  (1)
    8     7          -1.0365440941         -28.2057987560     A'        A'  (1)
    9     8          -0.6442184146         -17.5300742744     A'        A'  (1)
   10   106          -0.6050585710         -16.4644807559     A''       A'' (2)
   11     9          -0.5926475235         -16.1267589834     A'        A'  (1)
   12    10          -0.4501196548         -12.2483785019     A'        A'  (1)
   13   107          -0.4357406283         -11.8571053000     A''       A'' (2)
  +++++++++++++++++++++++++++++++++++++++++++++++++++++++++++++++++++++++++++++
   14    11           0.0147665538           0.4018183580     A'        A'  (1)
   15    12           0.0615529252           1.6749402481     A'        A'  (1)
   16    13           0.1050679632           2.8590446289     A'        A'  (1)
   17   108           0.1172445243           3.1903857015     A''       A'' (2)
   18    14           0.1245463713           3.3890790610     A'        A'  (1)
   19    15           0.1545123624           4.2044951324     A'        A'  (1)
   20    16           0.1667650054           4.5379065009     A'        A'  (1)
   21    17           0.1754209922           4.7734478743     A'        A'  (1)
   22   109           0.1923674220           5.2345836728     A''       A'' (2)
   23    18           0.2251075301           6.1254873067     A'        A'  (1)
   24   110           0.2526751544           6.8756405028     A''       A'' (2)
   25    19           0.2934385520           7.9848689415     A'        A'  (1)
   26    20           0.3301614174           8.9841489114     A'        A'  (1)
   27    21           0.3454748224           9.4008478476     A'        A'  (1)
   28   111           0.3799960291          10.3402176389     A''       A'' (2)
   29    22           0.3905010474          10.6260737182     A'        A'  (1)
   30   112           0.4239233965          11.5355420739     A''       A'' (2)
   31    23           0.4564325381          12.4201607908     A'        A'  (1)
   32    24           0.5072530871          13.8030582330     A'        A'  (1)
   33    25           0.5953479426          16.2002411232     A'        A'  (1)
   34   113           0.6162322111          16.7685309591     A''       A'' (2)
   35    26           0.6695798942          18.2201952169     A'        A'  (1)
   36    27           0.6861110219          18.6700300728     A'        A'  (1)
   37   114           0.7384607095          20.0945374923     A''       A'' (2)
   38    28           0.7451755449          20.2772574514     A'        A'  (1)
   39    29           0.7653310108          20.8257155629     A'        A'  (1)
   40   115           0.7719554687          21.0059762278     A''       A'' (2)
   41    30           0.8377056232          22.7951288906     A'        A'  (1)
   42    31           0.8508214554          23.1520288267     A'        A'  (1)
   43   116           0.8604777775          23.4147907104     A''       A'' (2)
   44   117           0.9025027316          24.5583478491     A''       A'' (2)
   45    32           0.9032026134          24.5773926013     A'        A'  (1)
   46   118           0.9334184625          25.3996076549     A''       A'' (2)
   47    33           0.9339867217          25.4150707758     A'        A'  (1)
   48    34           0.9561606728          26.0184546593     A'        A'  (1)
   49   119           0.9638359099          26.2273084792     A''       A'' (2)
   50    35           1.0099348122          27.4817233842     A'        A'  (1)
   51    36           1.0215282531          27.7971969481     A'        A'  (1)
   52    37           1.1178133960          30.4172488869     A'        A'  (1)
   53   120           1.1274552117          30.6796160328     A''       A'' (2)
   54    38           1.1580721290          31.5127447076     A'        A'  (1)
   55   121           1.1855407795          32.2602046881     A''       A'' (2)
   56    39           1.2322975406          33.5325208402     A'        A'  (1)
   57    40           1.2854615992          34.9791884221     A'        A'  (1)
   58   122           1.3640971762          37.1189712562     A''       A'' (2)
   59   123           1.4307122204          38.9316587654     A''       A'' (2)
   60    41           1.4494348675          39.4411278936     A'        A'  (1)
   61   124           1.5259633787          41.5235745514     A''       A'' (2)
   62    42           1.5544554900          42.2988843175     A'        A'  (1)
   63    43           1.6077396962          43.7488212819     A'        A'  (1)
   64    44           1.6457587854          44.7833732934     A'        A'  (1)
   65    45           1.7342384649          47.1910277760     A'        A'  (1)
   66    46           1.8205952321          49.5409148768     A'        A'  (1)
   67   125           2.1763532373          59.2215823546     A''       A'' (2)
   68   126           2.2163371206          60.3095991325     A''       A'' (2)
   69    47           2.2421958873          61.0132519475     A'        A'  (1)
   70    48           2.2669613224          61.6871536975     A'        A'  (1)
   71    49           2.3092789539          62.8386749934     A'        A'  (1)
   72   127           2.3128922660          62.9369982123     A''       A'' (2)
   73    50           2.3283769552          63.3583580281     A'        A'  (1)
   74    51           2.3773267709          64.6903502297     A'        A'  (1)
   75    52           2.4441097501          66.5076074803     A'        A'  (1)
   76   128           2.4445869241          66.5205920468     A''       A'' (2)
   77   129           2.4698191955          67.2071970585     A''       A'' (2)
   78   130           2.4807462070          67.5045361560     A''       A'' (2)
   79    53           2.5025163273          68.0969312479     A'        A'  (1)
   80   131           2.6206339440          71.3110750016     A''       A'' (2)
   81    54           2.6750257366          72.7911509234     A'        A'  (1)
   82    55           2.7991626106          76.1690869972     A'        A'  (1)
   83    56           2.8826454665          78.4407709959     A'        A'  (1)
   84   132           2.8987830656          78.8798973924     A''       A'' (2)
   85    57           2.9721185044          80.8754561348     A'        A'  (1)
   86    58           3.0613101245          83.3024835034     A'        A'  (1)
   87   133           3.0640801755          83.3778604226     A''       A'' (2)
   88   134           3.1197711849          84.8932898328     A''       A'' (2)
   89    59           3.1285918578          85.1333125441     A'        A'  (1)
   90    60           3.2113976568          87.3865728898     A'        A'  (1)
   91    61           3.2563853545          88.6107503781     A'        A'  (1)
   92   135           3.3590519629          91.4044508242     A''       A'' (2)
   93    62           3.3998463622          92.5145228641     A'        A'  (1)
   94    63           3.4510013619          93.9065211714     A'        A'  (1)
   95    64           3.7981553655         103.3530618629     A'        A'  (1)
   96   136           3.9061826500         106.2926337201     A''       A'' (2)
   97    65           4.0030940163         108.9297260651     A'        A'  (1)
   98    66           4.0384884027         109.8928562813     A'        A'  (1)
   99   137           4.0405335731         109.9485081980     A''       A'' (2)
  100   138           4.2369889129         115.2943297700     A''       A'' (2)
  101    67           4.4231859591         120.3610089825     A'        A'  (1)
  102    68           4.4832544729         121.9955563426     A'        A'  (1)
  103   139           4.4847693360         122.0367778630     A''       A'' (2)
  104    69           4.7682822274         129.7515558492     A'        A'  (1)
  105    70           5.1215255172         139.3637944414     A'        A'  (1)
  106    71           5.7333839698         156.0133093806     A'        A'  (1)
  107    72           6.0045527521         163.3921870819     A'        A'  (1)
  108   140           6.6088600786         179.8362254346     A''       A'' (2)
  109    73           6.6652639623         181.3710531407     A'        A'  (1)
  110   141           6.7184178874         182.8174449747     A''       A'' (2)
  111    74           6.7491160495         183.6527844347     A'        A'  (1)
  112   142           6.7791996696         184.4714013534     A''       A'' (2)
  113    75           6.9001345133         187.7622057533     A'        A'  (1)
  114   143           7.1262596567         193.9153837256     A''       A'' (2)
  115    76           7.1771228880         195.2994426148     A'        A'  (1)
  116   144           7.2045078996         196.0446266630     A''       A'' (2)
  117    77           7.2989083704         198.6133940693     A'        A'  (1)
  118    78           7.6281911010         207.5736326978     A'        A'  (1)
  119    79           7.8232694117         212.8819834024     A'        A'  (1)
  120   145          10.3549308810         281.7719942837     A''       A'' (2)
  121    80          10.3571605662         281.8326671015     A'        A'  (1)
  122   146          10.3933180183         282.8165613936     A''       A'' (2)
  123    81          10.4417206243         284.1336632632     A'        A'  (1)
  124    82          10.6127098368         288.7865162822     A'        A'  (1)
  125   147          12.6849756781         345.1757365958     A''       A'' (2)
  126    83          12.7353032058         346.5452182496     A'        A'  (1)
  127    84          13.2170472224         359.6541393834     A'        A'  (1)
  128    85          18.2724174002         497.2177555206     A'        A'  (1)
  129   148          26.0627852115         709.2044408622     A''       A'' (2)
  130    86          26.5190974799         721.6213289474     A'        A'  (1)
  131    87          26.8547193063         730.7540631425     A'        A'  (1)
  132    88          28.7856148082         783.2964009497     A'        A'  (1)
  133   149          36.9011887477        1004.1323949292     A''       A'' (2)
  134   150          36.9020816570        1004.1566922256     A''       A'' (2)
  135    89          36.9022351934        1004.1608701649     A'        A'  (1)
  136    90          36.9051186394        1004.2393327180     A'        A'  (1)
  137   151          36.9105009130        1004.3857918300     A''       A'' (2)
  138    91          36.9106456938        1004.3897315159     A'        A'  (1)
  139    92          36.9147160898        1004.5004926215     A'        A'  (1)
  140   152          43.8931670981        1194.3937985460     A''       A'' (2)
  141    93          43.9019035628        1194.6315298378     A'        A'  (1)
  142   153          43.9123689847        1194.9163084448     A''       A'' (2)
  143    94          44.0433712148        1198.4810603554     A'        A'  (1)
  144    95          44.0981762948        1199.9723823997     A'        A'  (1)
  145   154          46.4885442480        1265.0176012406     A''       A'' (2)
  146    96          46.4898356318        1265.0527415794     A'        A'  (1)
  147   155          46.5134123175        1265.6942958147     A''       A'' (2)
  148    97          46.5395882693        1266.4065796730     A'        A'  (1)
  149    98          46.6242261390        1268.7096931966     A'        A'  (1)
  150   156          55.0246302236        1497.2963094568     A''       A'' (2)
  151    99          55.0792470304        1498.7825083284     A'        A'  (1)
  152   100          55.6429173308        1514.1207569820     A'        A'  (1)
  153   101         103.8440829466        2825.7411548804     A'        A'  (1)
  154   157         138.2226976424        3761.2308201302     A''       A'' (2)
  155   102         138.5452011678        3770.0065872084     A'        A'  (1)
  156   103         138.7774768271        3776.3271292267     A'        A'  (1)
  157   104         149.4997469133        4068.0949314610     A'        A'  (1)


  VSCF finished.

 @CHECKOUT-I, Total execution time (CPU/WALL):       74.71/      16.82 seconds.
--executable xvscf finished with status     0 in       16.88 seconds (walltime).
 --invoking executable--
/home/asmola/.local/bin/xvtran
 @GETMEM-I,  Allocated    3814 MB of main memory.
  Full RHF integral transformation
  Transformation of IIII integrals :
  1 pass through the AO integral file was required.
    14223371 AO integrals were read.
    15933126 MO integrals were written to HF2.
  Transformation of IIJJ integrals :
  1 pass through the AO integral file was required.
     6937901 AO integrals were read.
     7813260 MO integrals were written to HF2.
  Transformation of IJIJ integrals :
  1 pass through the AO integral file was required.
    13424944 AO integrals were read.
    15193828 MO integrals were written to HF2.
  Summary of active molecular orbitals: 
------------------------------------------------------------------------
 
  Index      Eigenvalue    Symmetry    Index      Eigenvalue    Symmetry
------------------------------------------------------------------------
     1      -104.8843389        1        80         7.2989084        1
     2       -20.6588966        1        81         7.6281911        1
     3       -10.6043000        1        82         7.8232694        1
     4        -8.0710077        1        83        10.3571606        1
     5        -8.0687385        1        84        10.4417206        1
     6        -1.3666751        1        85        10.6127098        1
     7        -1.0365441        1        86        12.7353032        1
     8        -0.6442184        1        87        13.2170472        1
     9        -0.5926475        1        88        18.2724174        1
    10        -0.4501197        1        89        26.5190975        1
    11        -8.0685790        2        90        26.8547193        1
    12        -0.6050586        2        91        28.7856148        1
    13        -0.4357406        2        92        36.9022352        1
    14         0.0147666        1        93        36.9051186        1
    15         0.0615529        1        94        36.9106457        1
    16         0.1050680        1        95        36.9147161        1
    17         0.1245464        1        96        43.9019036        1
    18         0.1545124        1        97        44.0433712        1
    19         0.1667650        1        98        44.0981763        1
    20         0.1754210        1        99        46.4898356        1
    21         0.2251075        1       100        46.5395883        1
    22         0.2934386        1       101        46.6242261        1
    23         0.3301614        1       102        55.0792470        1
    24         0.3454748        1       103        55.6429173        1
    25         0.3905010        1       104       103.8440829        1
    26         0.4564325        1       105       138.5452012        1
    27         0.5072531        1       106       138.7774768        1
    28         0.5953479        1       107       149.4997469        1
    29         0.6695799        1       108         0.1172445        2
    30         0.6861110        1       109         0.1923674        2
    31         0.7451755        1       110         0.2526752        2
    32         0.7653310        1       111         0.3799960        2
    33         0.8377056        1       112         0.4239234        2
    34         0.8508215        1       113         0.6162322        2
    35         0.9032026        1       114         0.7384607        2
    36         0.9339867        1       115         0.7719555        2
    37         0.9561607        1       116         0.8604778        2
    38         1.0099348        1       117         0.9025027        2
    39         1.0215283        1       118         0.9334185        2
    40         1.1178134        1       119         0.9638359        2
    41         1.1580721        1       120         1.1274552        2
    42         1.2322975        1       121         1.1855408        2
    43         1.2854616        1       122         1.3640972        2
    44         1.4494349        1       123         1.4307122        2
    45         1.5544555        1       124         1.5259634        2
    46         1.6077397        1       125         2.1763532        2
    47         1.6457588        1       126         2.2163371        2
    48         1.7342385        1       127         2.3128923        2
    49         1.8205952        1       128         2.4445869        2
    50         2.2421959        1       129         2.4698192        2
    51         2.2669613        1       130         2.4807462        2
    52         2.3092790        1       131         2.6206339        2
    53         2.3283770        1       132         2.8987831        2
    54         2.3773268        1       133         3.0640802        2
    55         2.4441098        1       134         3.1197712        2
    56         2.5025163        1       135         3.3590520        2
    57         2.6750257        1       136         3.9061827        2
    58         2.7991626        1       137         4.0405336        2
    59         2.8826455        1       138         4.2369889        2
    60         2.9721185        1       139         4.4847693        2
    61         3.0613101        1       140         6.6088601        2
    62         3.1285919        1       141         6.7184179        2
    63         3.2113977        1       142         6.7791997        2
    64         3.2563854        1       143         7.1262597        2
    65         3.3998464        1       144         7.2045079        2
    66         3.4510014        1       145        10.3549309        2
    67         3.7981554        1       146        10.3933180        2
    68         4.0030940        1       147        12.6849757        2
    69         4.0384884        1       148        26.0627852        2
    70         4.4231860        1       149        36.9011887        2
    71         4.4832545        1       150        36.9020817        2
    72         4.7682822        1       151        36.9105009        2
    73         5.1215255        1       152        43.8931671        2
    74         5.7333840        1       153        43.9123690        2
    75         6.0045528        1       154        46.4885442        2
    76         6.6652640        1       155        46.5134123        2
    77         6.7491160        1       156        55.0246302        2
    78         6.9001345        1       157       138.2226976        2
    79         7.1771229        1
------------------------------------------------------------------------
  -104.884338924831       -20.6588966385926       -10.6043000234889     
  -8.07100773566845       -8.06873848157231       -1.36667513615678     
  -1.03654409411657      -0.644218414649299      -0.592647523515749     
 -0.450119654772898       -8.06857900575687      -0.605058571034465     
 -0.435740628314873       1.476655383817440E-002  6.155292523976914E-002
  0.105067963170883       0.124546371317881       0.154512362368008     
  0.166765005445567       0.175420992168389       0.225107530060069     
  0.293438551952840       0.330161417350591       0.345474822409857     
  0.390501047374917       0.456432538110847       0.507253087065633     
  0.595347942627727       0.669579894160128       0.686111021933283     
  0.745175544858371       0.765331010804170       0.837705623249428     
  0.850821455359607       0.903202613407507       0.933986721740812     
  0.956160672789809        1.00993481221362        1.02152825306669     
   1.11781339595345        1.15807212902036        1.23229754060214     
   1.28546159921009        1.44943486752802        1.55445549003234     
   1.60773969624337        1.64575878539888        1.73423846491944     
   1.82059523209578        2.24219588731170        2.26696132242725     
   2.30927895394848        2.32837695521696        2.37732677088705     
   2.44410975005011        2.50251632733538        2.67502573659674     
   2.79916261064303        2.88264546652486        2.97211850444955     
   3.06131012447515        3.12859185777876        3.21139765682812     
   3.25638535445202        3.39984636224421        3.45100136185594     
   3.79815536548148        4.00309401634775        4.03848840266307     
   4.42318595909786        4.48325447292670        4.76828222739942     
   5.12152551720021        5.73338396976006        6.00455275206188     
   6.66526396231400        6.74911604952328        6.90013451331018     
   7.17712288802027        7.29890837043348        7.62819110100133     
   7.82326941166722        10.3571605661729        10.4417206242885     
   10.6127098368018        12.7353032058475        13.2170472223534     
   18.2724174001600        26.5190974798937        26.8547193062768     
   28.7856148081647        36.9022351934130        36.9051186393548     
   36.9106456938133        36.9147160897935        43.9019035628214     
   44.0433712148353        44.0981762948421        46.4898356317822     
   46.5395882692605        46.6242261389981        55.0792470304330     
   55.6429173307674        103.844082946566        138.545201167848     
   138.777476827096        149.499746913309       0.117244524270228     
  0.192367421968135       0.252675154428211       0.379996029122306     
  0.423923396483560       0.616232211077711       0.738460709509125     
  0.771955468747942       0.860477777486731       0.902502731598033     
  0.933418462470532       0.963835909909048        1.12745521173387     
   1.18554077952978        1.36409717619244        1.43071222043658     
   1.52596337867117        2.17635323732019        2.21633712060641     
   2.31289226597352        2.44458692411829        2.46981919553955     
   2.48074620697300        2.62063394401476        2.89878306563535     
   3.06408017545188        3.11977118490922        3.35905196294553     
   3.90618265002048        4.04053357309348        4.23698891288121     
   4.48476933602160        6.60886007855941        6.71841788737305     
   6.77919966955360        7.12625965667089        7.20450789955092     
   10.3549308810118        10.3933180182831        12.6849756780748     
   26.0627852115084        36.9011887476901        36.9020816569592     
   36.9105009130117        43.8931670980747        43.9123689846945     
   46.4885442480154        46.5134123175353        55.0246302235706     
   138.222697642421     
 @CHECKOUT-I, Total execution time (CPU/WALL):       34.24/      19.42 seconds.
--executable xvtran finished with status     0 in       20.13 seconds (walltime).
 --invoking executable--
/home/asmola/.local/bin/xintprc
 @GETMEM-I,  Allocated    3814 MB of main memory.
  Processing integrals for CCSD calculation.
  @GMOIAA-I, Processing MO integrals for spin case AA.
  @GMOIAA-I, Generation of integral list completed.
                      TYPE                NUMBER
                      ----               --------
                      PPPP              27524020
                      PPPH               9932000
                      PPHH                900748
                      PHPH                491140
                      PHHH                 89950
                      HHHH                  2356

                     TOTAL              38940214

  @FORMT2-I, Second-order MP correlation energies:
            ------------------------------------------------
            E(SCF)                  =   -534.856645191596 a.u.
            E2(AA)                  =     -0.109390378637 a.u.
            E2(AB)                  =     -0.642677502247 a.u.
            E2(TOT)                 =     -0.861458259521 a.u.
            Total MP2 energy        =   -535.718103451117 a.u.
            ------------------------------------------------
   Largest T2 amplitudes for spin case AB:
       _       _                 _       _                 _       _
   i   j   a   b             i   j   a   b             i   j   a   b
-----------------------------------------------------------------------------
[  9   9  19  19]-0.02706 [  9   9  19  15] 0.02073 [  9   9  15  19] 0.02073
[  9   9  15  15]-0.01813 [  8   8  24  24]-0.01781 [ 13  13 112 112]-0.01766
[  9   9  19  18] 0.01701 [  9   9  18  19] 0.01701 [ 10  10  26  26]-0.01583
[ 13  13 113 113]-0.01536 [ 10  10 117 117]-0.01463 [  8   8  14  14]-0.01419
[  8   8  19  19]-0.01401 [  8   8  24  16] 0.01401 [  8   8  16  24] 0.01401
-----------------------------------------------------------------------------
   Norm of T2AB vector (  1799624 symmetry allowed elements):  0.3435503677.
-----------------------------------------------------------------------------
 @CHECKOUT-I, Total execution time (CPU/WALL):        7.68/      12.21 seconds.
--executable xintprc finished with status     0 in       12.37 seconds (walltime).
  calling xvcc 
 --invoking executable--
/home/asmola/.local/bin/xvcc
 @GETMEM-I,  Allocated    3814 MB of main memory.
   CCSD energy will be calculated.
   The total correlation energy is -0.861458259521 a.u.
   The total correlation energy is -0.856015075906 a.u.
  Convergence information after     1 iterations: 
  Largest element of residual vector : -0.14118905E-01.
  Largest element of DIIS residual   : -0.14118905E-01.
   The total correlation energy is -0.873516502160 a.u.
  Convergence information after     2 iterations: 
  Largest element of residual vector : -0.38817756E-02.
  Largest element of DIIS residual   : -0.33196507E-02.
   The total correlation energy is -0.872894180073 a.u.
  Convergence information after     3 iterations: 
  Largest element of residual vector : -0.25028260E-02.
  Largest element of DIIS residual   :  0.20737696E-02.
   The total correlation energy is -0.874807117120 a.u.
  Convergence information after     4 iterations: 
  Largest element of residual vector :  0.62738616E-03.
  Largest element of DIIS residual   :  0.58257777E-03.
   The total correlation energy is -0.875063542525 a.u.
  Convergence information after     5 iterations: 
  Largest element of residual vector :  0.74387640E-03.
  Largest element of DIIS residual   :  0.49323793E-03.
   The total correlation energy is -0.875079354116 a.u.
  Convergence information after     6 iterations: 
  Largest element of residual vector :  0.28622064E-03.
  Largest element of DIIS residual   :  0.17421492E-03.
   The total correlation energy is -0.875085459091 a.u.
  Convergence information after     7 iterations: 
  Largest element of residual vector :  0.17682110E-03.
  Largest element of DIIS residual   : -0.94602888E-04.
   The total correlation energy is -0.875086265949 a.u.
  Convergence information after     8 iterations: 
  Largest element of residual vector : -0.67557190E-04.
  Largest element of DIIS residual   :  0.43734788E-04.
   The total correlation energy is -0.875085905446 a.u.
  Convergence information after     9 iterations: 
  Largest element of residual vector : -0.33412655E-04.
  Largest element of DIIS residual   :  0.18646727E-04.
   The total correlation energy is -0.875087725872 a.u.
  Convergence information after    10 iterations: 
  Largest element of residual vector :  0.16153261E-04.
  Largest element of DIIS residual   :  0.89397506E-05.
   The total correlation energy is -0.875088128606 a.u.
  Convergence information after    11 iterations: 
  Largest element of residual vector :  0.56655586E-05.
  Largest element of DIIS residual   : -0.37980200E-05.
   The total correlation energy is -0.875088569771 a.u.
  Convergence information after    12 iterations: 
  Largest element of residual vector : -0.32897305E-05.
  Largest element of DIIS residual   : -0.18284550E-05.
   The total correlation energy is -0.875088772301 a.u.
  Convergence information after    13 iterations: 
  Largest element of residual vector : -0.10165500E-05.
  Largest element of DIIS residual   : -0.71765486E-06.
   The total correlation energy is -0.875088833211 a.u.
  Convergence information after    14 iterations: 
  Largest element of residual vector :  0.74223144E-06.
  Largest element of DIIS residual   :  0.51526148E-06.
   The total correlation energy is -0.875088856495 a.u.
  Convergence information after    15 iterations: 
  Largest element of residual vector : -0.34786248E-06.
  Largest element of DIIS residual   : -0.20346402E-06.
   The total correlation energy is -0.875088865912 a.u.
  Convergence information after    16 iterations: 
  Largest element of residual vector :  0.21677595E-06.
  Largest element of DIIS residual   : -0.98171055E-07.
   The total correlation energy is -0.875088869115 a.u.
  Convergence information after    17 iterations: 
  Largest element of residual vector : -0.95768909E-07.
  Largest element of DIIS residual   : -0.47059936E-07.
   The total correlation energy is -0.875088870701 a.u.
  Convergence information after    18 iterations: 
  Largest element of residual vector : -0.30392743E-07.
  Largest element of DIIS residual   :  0.27543836E-07.
   The total correlation energy is -0.875088871010 a.u.
  Convergence information after    19 iterations: 
  Largest element of residual vector : -0.21940684E-07.
  Largest element of DIIS residual   : -0.12278665E-07.
   The total correlation energy is -0.875088871652 a.u.
  Convergence information after    20 iterations: 
  Largest element of residual vector :  0.90784976E-08.
  Largest element of DIIS residual   :  0.75907251E-08.
   The total correlation energy is -0.875088871783 a.u.
  Convergence information after    21 iterations: 
  Largest element of residual vector : -0.50182636E-08.
  Largest element of DIIS residual   :  0.28476724E-08.
   The total correlation energy is -0.875088871955 a.u.
  Convergence information after    22 iterations: 
  Largest element of residual vector :  0.24131419E-08.
  Largest element of DIIS residual   :  0.16812688E-08.
   The total correlation energy is -0.875088871969 a.u.
  Convergence information after    23 iterations: 
  Largest element of residual vector : -0.11300518E-08.
  Largest element of DIIS residual   :  0.50246858E-09.
   The total correlation energy is -0.875088871982 a.u.
  Convergence information after    24 iterations: 
  Largest element of residual vector : -0.42193760E-09.
  Largest element of DIIS residual   : -0.24335347E-09.
   The total correlation energy is -0.875088871982 a.u.
  Convergence information after    25 iterations: 
  Largest element of residual vector : -0.14647987E-09.
  Largest element of DIIS residual   :  0.11993130E-09.
   The total correlation energy is -0.875088871981 a.u.
  Convergence information after    26 iterations: 
  Largest element of residual vector : -0.95735305E-10.
  Largest element of DIIS residual   : -0.54380152E-10.
  Amplitude equations converged in    26iterations.
   The total correlation energy is -0.875088871980 a.u.
   The CC iterations have converged.

   Largest T1 amplitudes for spin case AA:
   i       a                 i       a                 i       a    
-----------------------------------------------------------------------------
[...]
 term  0.461127928725225     
 final tnorm  0.826549907348966     
  norm contr. I: |<0|L dT/dx|0>|^2   0.000000000000000E+000
  norm contr. II: <0|[nabla(1+L)e-T][nabla e^T]|0>  0.461127928725225     
  total norm contribution  0.461127928725225     
 oo  2.187947684764721E-003
 vv  -1.55009608073688     
 vo -2.805138420718107E-002
  Correlated perturbed 1-el contribution to DBOC  -1.57595951725929       cm**-1
  SUM_I |dc_I/dx|^2 contribution to DBOC  0.794054135933144       cm**-1
 
 
  The total diagonal Born-Oppenheimer correction (DBOC) is:      0.0087258954 a.u.
  The total diagonal Born-Oppenheimer correction (DBOC) is:       1915.112673 cm-1
 
 Total CC energy including DBOC  -535.723008168190     
 First-order density matrix is being calculated  (Symmetry block 2, perturbation   3)
 Calculation of the contributions of <pq||rs> to dI(i,j)/dx required   2.6 seconds.
 Calculation of the contributions of <pq||rs> to dI(a,b)/dx required   9.7 seconds.
 Calculation of the contributions of <pq||rs> to dI(i,a)/dx required   6.2 seconds.
 First-order Z-vector equations are solved for 1 perturbation.
 Convergence reached after  23 iterations.
        U*G(pq,rs) contribution is being calculated
             (Symmetry block 2, perturbation   3)

 CCSD contribution to force constants 

        0.0000000000        0.0000000000        0.0000000000
        0.0000000000        0.0000000000        0.0000000000
        0.0000000000        0.0000000000        0.0000000000
        0.0000000000        0.0000000000        0.0000000000
        0.0000000000        0.0000000000        0.0000000000
        0.0000000000        0.0000000000        0.0000000000
        0.0000000000        0.0000000000        0.0000000000
        0.0000000000        0.0000000000        0.0000000000
        0.0000000000        0.0000000000        0.0000000000
        0.0000000000        0.0000000000        0.0000000000
        0.0000000000        0.0000000000        0.0000000000
        0.0000000000        0.0000000000        0.0000000000
        0.0000000000        0.0000000000        0.0000000000
        0.0000000000        0.0000000000        0.0000000000
        0.0000000000        0.0000000000        0.0000000000
        0.0000000000        0.0000000000        0.0000000000
        0.0000000000        0.0000000000        0.0000000000
        0.0000000000        0.0000000000        0.0000000000
        0.0000000000        0.0000000000        0.0000000000
        0.0000000000        0.0000000000        0.0000000000
        0.0000000000        0.0000000000        0.0000000000
        0.0000000000        0.0000000000        0.0000000000
        0.0000000000        0.0000000000        0.0000000000
        0.0000000000        0.0000000000        0.0000000000
        0.0000000000        0.0000000000        0.0000000000
        0.0000000000        0.0000000000        0.0000000000
        0.0890658650       -0.0258609178       -0.0632049471

 CCSD contribution to dipole derivatives 

        0.0000000000        0.0000000000        0.0000000000
        0.0000000000        0.0000000000        0.0000000000
        0.0000000000        0.0000000000        0.0000000000
        0.0000000000        0.0000000000        0.0000000000
        0.0000000000        0.0000000000        0.0000000000
        0.0000000000        0.0000000000        0.0000000000
        0.0000000000        0.0000000000        0.0000000000
        0.0000000000        0.0000000000        0.0000000000
        0.0000000000        0.0000000000        0.0154307510
 @CHECKOUT-I, Total execution time (CPU/WALL):      952.43/     261.86 seconds.
--executable xsdcc finished with status     0 in      262.05 seconds (walltime).
 --invoking executable--
/home/asmola/.local/bin/xanti
 @GETMEM-I,  Allocated    3814 MB of main memory.
 CCSD MO derivative gammas will be sorted to Mulliken order.
 @CHECKOUT-I, Total execution time (CPU/WALL):        6.39/       5.03 seconds.
--executable xanti finished with status     0 in        5.22 seconds (walltime).
 --invoking executable--
/home/asmola/.local/bin/xbcktrn
 @GETMEM-I,  Allocated    3814 MB of main memory.
 CCSD MO derivative gammas will be transformed to the AO basis.
 @CHECKOUT-I, Total execution time (CPU/WALL):       12.83/       2.66 seconds.
--executable xbcktrn finished with status     0 in        2.72 seconds (walltime).
 --invoking executable--
/home/asmola/.local/bin/xvdint
 @GETMEM-I,  Allocated    3814 MB of main memory.
 One- and two-electron integral derivatives are calculated
 for RHF-CC/MBPT hessians and dipole derivatives.
 Spherical gaussians are used.
  magnet F F
 Evaluation of 2el integral derivatives

                      Two-electron integral gradient
                      ------------------------------

                         O #1 x     0.0000000000
                         O #1 y     0.0000000000
                         H #2 x     0.0000000000
                         H #2 y     0.0000000000
                         CL#3 x     0.0000000000
                         CL#3 y     0.0000000000


 O #1       0.0000000000            0.0000000000           -0.0895820403
 H #2       0.0000000000            0.0000000000            0.0056438046
 CL#3       0.0000000000            0.0000000000            0.0839382357


 Evaluation of 2e integral derivatives required  117.91 seconds.
  contribution to Hessian
        0.0000000000        0.0000000000        0.0000000000
        0.0000000000        0.0000000000        0.0000000000
       -0.0895820403        0.0056438046        0.0839382357
 @CHECKOUT-I, Total execution time (CPU/WALL):      118.10/      20.70 seconds.
--executable xvdint finished with status     0 in       20.83 seconds (walltime).
 --invoking executable--
/home/asmola/.local/bin/xanti
 @GETMEM-I,  Allocated    3814 MB of main memory.
 CCSD MO gammas will be sorted to Mulliken order.
 @CHECKOUT-I, Total execution time (CPU/WALL):        9.44/      16.44 seconds.
--executable xanti finished with status     0 in       16.55 seconds (walltime).
 --invoking executable--
/home/asmola/.local/bin/xbcktrn
 @GETMEM-I,  Allocated    3814 MB of main memory.
 CCSD MO gammas will be transformed to the AO basis.
 @CHECKOUT-I, Total execution time (CPU/WALL):       18.79/       4.22 seconds.
--executable xbcktrn finished with status     0 in        4.31 seconds (walltime).
 --invoking executable--
/home/asmola/.local/bin/xvdint
 @GETMEM-I,  Allocated    3814 MB of main memory.
 One- and two-electron integral derivatives are calculated
 for RHF-CC/MBPT hessians and dipole derivatives.
 Spherical gaussians are used.
  magnet F F

                     Kinetic energy integral gradient
                     --------------------------------

                         O #1 x     0.2147374471
                         O #1 y    -0.2219800427
                         H #2 x     0.1200843528
                         H #2 y     0.2294307427
                         CL#3 x    -0.3348217999
                         CL#3 y    -0.0074506999


 O #1       0.2147374471           -0.2219800427            0.0000000000
 H #2       0.1200843528            0.2294307427            0.0000000000
 CL#3      -0.3348217999           -0.0074506999            0.0000000000



                   Nuclear attraction integral gradient
                   ------------------------------------

                         O #1 x   -24.4849642793
                         O #1 y     4.8675551577
                         H #2 x    -3.0612219332
                         H #2 y    -4.4294904997
                         CL#3 x    27.5461862125
                         CL#3 y    -0.4380646580


 O #1     -24.4849642793            4.8675551577            0.0000000000
 H #2      -3.0612219332           -4.4294904997            0.0000000000
 CL#3      27.5461862125           -0.4380646580            0.0000000000



                      Reorthonormalization gradient
                      -----------------------------

                         O #1 x     0.0000000000
                         O #1 y     0.0000000000
                         H #2 x     0.0000000000
                         H #2 y     0.0000000000
                         CL#3 x     0.0000000000
                         CL#3 y     0.0000000000


 O #1       0.0000000000            0.0000000000            0.0000000000
 H #2       0.0000000000            0.0000000000            0.0000000000
 CL#3       0.0000000000            0.0000000000            0.0000000000



                     Kinetic energy integral Hessian
                     -------------------------------


           Symmetry 1

           O #1 x      O #1 y      H #2 x      H #2 y      CL#3 x      CL#3 y

 O #1 x    0.282657
 O #1 y    0.167065   -0.019284
 H #2 x    0.085615   -0.175573   -0.089312
 H #2 y   -0.175573   -0.194104    0.179557    0.198740
 CL#3 x   -0.368272    0.008508    0.003697   -0.003983    0.364576
 CL#3 y    0.008508    0.213388   -0.003983   -0.004636   -0.004525   -0.208752


           Symmetry 2

           O #1 z      H #2 z      CL#3 z

 O #1 z   -0.389972
 H #2 z    0.183294   -0.183367
 CL#3 z    0.206678    0.000074   -0.206752




           O #1 x      O #1 y      O #1 z      H #2 x      H #2 y      H #2 z

 O #1 x    0.282657
 O #1 y    0.167065   -0.019284
 O #1 z    0.000000    0.000000   -0.389972

 H #2 x    0.085615   -0.175573    0.000000   -0.089312
 H #2 y   -0.175573   -0.194104    0.000000    0.179557    0.198740
 H #2 z    0.000000    0.000000    0.183294    0.000000    0.000000   -0.183367

 CL#3 x   -0.368272    0.008508    0.000000    0.003697   -0.003983    0.000000
 CL#3 y    0.008508    0.213388    0.000000   -0.003983   -0.004636    0.000000
 CL#3 z    0.000000    0.000000    0.206678    0.000000    0.000000    0.000074


           CL#3 x      CL#3 y      CL#3 z

 CL#3 x    0.364576
 CL#3 y   -0.004525   -0.208752
 CL#3 z    0.000000    0.000000   -0.206752




                   Nuclear attraction integral Hessian
                   -----------------------------------


           Symmetry 1

           O #1 x      O #1 y      H #2 x      H #2 y      CL#3 x      CL#3 y

 O #1 x  -12.172109
 O #1 y   -0.488131    9.176360
 H #2 x   -1.998117    1.850453    1.676034
 H #2 y    1.846857    1.010795   -2.438535   -1.223241
 CL#3 x   14.170226   -1.362322    0.322083    0.591678  -14.492309
 CL#3 y   -1.358726  -10.187155    0.588081    0.212446    0.770644    9.974710


           Symmetry 2

           O #1 z      H #2 z      CL#3 z

 O #1 z   12.678290
 H #2 z   -2.996184    3.272201
 CL#3 z   -9.682107   -0.276017    9.958124




           O #1 x      O #1 y      O #1 z      H #2 x      H #2 y      H #2 z

 O #1 x  -12.172109
 O #1 y   -0.488131    9.176360
 O #1 z    0.000000    0.000000   12.678290

 H #2 x   -1.998117    1.850453    0.000000    1.676034
 H #2 y    1.846857    1.010795    0.000000   -2.438535   -1.223241
 H #2 z    0.000000    0.000000   -2.996184    0.000000    0.000000    3.272201

 CL#3 x   14.170226   -1.362322    0.000000    0.322083    0.591678    0.000000
 CL#3 y   -1.358726  -10.187155    0.000000    0.588081    0.212446    0.000000
 CL#3 z    0.000000    0.000000   -9.682107    0.000000    0.000000   -0.276017


           CL#3 x      CL#3 y      CL#3 z

 CL#3 x  -14.492309
 CL#3 y    0.770644    9.974710
 CL#3 z    0.000000    0.000000    9.958124




                Highest order reorthonormalization Hessian
                ------------------------------------------


           Symmetry 1

           O #1 x      O #1 y      H #2 x      H #2 y      CL#3 x      CL#3 y

 O #1 x    0.000000
 O #1 y    0.000000    0.000000
 H #2 x    0.000000    0.000000    0.000000
 H #2 y    0.000000    0.000000    0.000000    0.000000
 CL#3 x    0.000000    0.000000    0.000000    0.000000    0.000000
 CL#3 y    0.000000    0.000000    0.000000    0.000000    0.000000    0.000000


           Symmetry 2

           O #1 z      H #2 z      CL#3 z

 O #1 z    0.000000
 H #2 z    0.000000    0.000000
 CL#3 z    0.000000    0.000000    0.000000




           O #1 x      O #1 y      O #1 z      H #2 x      H #2 y      H #2 z


           CL#3 x      CL#3 y      CL#3 z




                Electronic contributions to dipole moment
                -----------------------------------------

                               au             Debye

                    x      1.75778798      4.46785217
                    y      0.38904962      0.98886567

  Conversion factor used: 1 a.u. =   2.54174691 Debye 



   Electronic contributions to static part of dipole moment derivatives
   --------------------------------------------------------------------


                     Total dipole moment derivatives
                     -------------------------------


           Symmetry 1
                              Ex             Ey

               O #1 x    -8.81655127    -0.08123070
               O #1 y    -0.29930194    -8.81073927
               H #2 x    -0.40819134     0.09701508
               H #2 y     0.36041301    -0.34372486
               CL#3 x   -16.77525739    -0.01578438
               CL#3 y    -0.06111108   -16.84553587

           Symmetry 2
                              Ez

               O #1 z    -8.43810145
               H #2 z    -0.68981926
               CL#3 z   -16.87207929



                       Ex          Ey          Ez

      O #1    x   -8.816551   -0.081231    0.000000
      O #1    y   -0.299302   -8.810739    0.000000
      O #1    z    0.000000    0.000000   -8.438101

      H #2    x   -0.408191    0.097015    0.000000
      H #2    y    0.360413   -0.343725    0.000000
      H #2    z    0.000000    0.000000   -0.689819

      CL#3    x  -16.775257   -0.015784    0.000000
      CL#3    y   -0.061111  -16.845536    0.000000
      CL#3    z    0.000000    0.000000  -16.872079

 Evaluation of 1e integral derivatives required    1.58 seconds.
 Evaluation of 2el integral derivatives

                      Two-electron integral gradient
                      ------------------------------

                         O #1 x    11.2788892539
                         O #1 y    -2.3625128063
                         H #2 x     1.6273770509
                         H #2 y     2.3136900004
                         CL#3 x   -12.9062663048
                         CL#3 y     0.0488228059


 O #1      11.2788892539           -2.3625128063            0.0000000000
 H #2       1.6273770509            2.3136900004            0.0000000000
 CL#3     -12.9062663048            0.0488228059            0.0000000000


 Evaluation of 2e integral derivatives required  302.38 seconds.

                            Molecular gradient
                            ------------------

                         O #1 x    -0.0307252825
                         O #1 y     0.2493844814
                         H #2 x    -0.1258162249
                         H #2 y    -0.2623011265
                         CL#3 x     0.1565415074
                         CL#3 y     0.0129166451


 O #1      -0.0307252825            0.2493844814            0.0000000000
 H #2      -0.1258162249           -0.2623011265            0.0000000000
 CL#3       0.1565415074            0.0129166451            0.0000000000


  Molecular gradient norm 0.415E+00

                            Molecular hessian
                            -----------------


           Symmetry 1

           O #1 x      O #1 y      H #2 x      H #2 y      CL#3 x      CL#3 y

 O #1 x    2.081565
 O #1 y    1.454291    5.489708
 H #2 x   -0.297802   -2.307364    0.491948
 H #2 y   -1.764241   -5.864369    1.859870    5.806040
 CL#3 x   -1.783763    0.519660   -0.097361    0.034116    1.881124
 CL#3 y    0.309950    0.374662   -0.026959    0.054281   -0.282991   -0.428943


           Symmetry 2

           O #1 z      H #2 z      CL#3 z

 O #1 z   -0.127148
 H #2 z    0.211449   -0.179429
 CL#3 z   -0.084301   -0.027732    0.112034




           O #1 x      O #1 y      O #1 z      H #2 x      H #2 y      H #2 z

 O #1 x    2.081565
 O #1 y    1.454291    5.489708
 O #1 z    0.000000    0.000000   -0.127148

 H #2 x   -0.297802   -2.307364    0.000000    0.491948
 H #2 y   -1.764241   -5.864369    0.000000    1.859870    5.806040
 H #2 z    0.000000    0.000000    0.211449    0.000000    0.000000   -0.179429

 CL#3 x   -1.783763    0.519660    0.000000   -0.097361    0.034116    0.000000
 CL#3 y    0.309950    0.374662    0.000000   -0.026959    0.054281    0.000000
 CL#3 z    0.000000    0.000000   -0.084301    0.000000    0.000000   -0.027732


           CL#3 x      CL#3 y      CL#3 z

 CL#3 x    1.881124
 CL#3 y   -0.282991   -0.428943
 CL#3 z    0.000000    0.000000    0.112034




                           Total dipole moment
                           -------------------

                               au             Debye

                    x     -0.23459015     -0.59626879
                    y     -0.66036415     -1.67847853

  Conversion factor used: 1 a.u. =   2.54174691 Debye 



                     Total dipole moment derivatives
                     -------------------------------


           Symmetry 1
                              Ex             Ey

               O #1 x    -0.27617813     0.02310112
               O #1 y     0.02879136    -0.05794069
               H #2 x     0.18246238    -0.06014478
               H #2 y    -0.07948366     0.07097160
               CL#3 x     0.09371587     0.03704381
               CL#3 y     0.05069216    -0.01303096

           Symmetry 2
                              Ez

               O #1 z    -0.28845115
               H #2 z     0.28580935
               CL#3 z     0.00264190



                       Ex          Ey          Ez

      O #1    x   -0.276178    0.023101    0.000000
      O #1    y    0.028791   -0.057941    0.000000
      O #1    z    0.000000    0.000000   -0.288451

      H #2    x    0.182462   -0.060145    0.000000
      H #2    y   -0.079484    0.070972    0.000000
      H #2    z    0.000000    0.000000    0.285809

      CL#3    x    0.093716    0.037044    0.000000
      CL#3    y    0.050692   -0.013031    0.000000
      CL#3    z    0.000000    0.000000    0.002642

  Molecular gradient does not satisfy rotational invariance condition.
   rotational invariance in yz-plane :        0.0000E+00
   rotational invariance in xz-plane :        0.0000E+00
   rotational invariance in xy-plane :        -.4874E-02
 @CHECKOUT-I, Total execution time (CPU/WALL):      304.09/      44.48 seconds.
--executable xvdint finished with status     0 in       44.61 seconds (walltime).
 --invoking executable--
/home/asmola/.local/bin/xjoda
  @GTFLGS-I, Hessian will be transformed to curvilinear coordinates.
  @GTFLGS-I, Hessian will be transformed to curvilinear coordinates.
  igrd and ihes are                      0                     1
  gradient from JOBARC 
  -0.030725282512632   0.249384481352987   0.000000000000000
  -0.125816224905095  -0.262301126492360   0.000000000000000
   0.156541507417698   0.012916645139367   0.000000000000000
 
  @PROJFCM-I, Projecting force constant matrix onto totally symmetric subspace.
  Largest difference between matrix elements of symmetrized
  and unsymmetrized FCM :     0.0000000000E+00.
 
  Summary of diagonal Born-Oppenheimer correction at the correlated level
  The total diagonal Born-Oppenheimer correction (DBOC) is:      0.0087258954 a.u.
  The total diagonal Born-Oppenheimer correction (DBOC) is:       1915.112673 cm-1
  The total diagonal Born-Oppenheimer correction (DBOC) is:            22.910 kJ/mole
  hellooooooo 
  readis is  F
 
 @CHECKOUT-I, Total execution time (CPU/WALL):        0.02/       0.10 seconds.
--executable xjoda finished with status     0 in        0.32 seconds (walltime).
  The final electronic energy is      -535.723008168190404 a.u. 
  This computation required                         2927.76 seconds (walltime).
