 --invoking executable--
/home/asmola/.local/bin/xjoda


   *************************************************************************
         <<<     CCCCCC     CCCCCC   |||     CCCCCC     CCCCCC   >>>
       <<<      CCC        CCC       |||    CCC        CCC         >>>
      <<<      CCC        CCC        |||   CCC        CCC            >>>
    <<<        CCC        CCC        |||   CCC        CCC              >>>
      <<<      CCC        CCC        |||   CCC        CCC            >>>
       <<<      CCC        CCC       |||    CCC        CCC         >>>
         <<<     CCCCCC     CCCCCC   |||     CCCCCC     CCCCCC   >>>
   *************************************************************************

     ****************************************************************
     * CFOUR Coupled-Cluster techniques for Computational Chemistry *
     ****************************************************************
 

   Department of Chemistry                Institut fuer Physikalische Chemie
   University of Florida                  Universitaet Mainz
   Gainesville, FL 32611, USA             D-55099 Mainz, Germany

   Department of Chemistry                Fakultaet fuer Chemie und Biowiss.
   Johns Hopkins University               Karlsruher Institut fuer Technologie
   Baltimore, MD 21218, USA               D-76131 Karlsruhe, Germany

   Department of Chemistry                Department of Physical Chemistry
   Southern Methodist University          Eotvos Lorand University
   Dallas, TX 75275, USA                  H-1053 Budapest, Hungary

 
                       Version 2.1
 
                     vincent.theory.phys.ucl.ac.uk                     
                     Wed 29 Jan 16:13:39 GMT 2025                      
                     integer*8 version is running
 
********************************************************************************
*                          Input from ZMAT file                                *
********************************************************************************
Hypochlorous acid DBOC calculation                                              
O                                                                               
H 1 ROH                                                                         
CL 1 ROCL 2 A                                                                   
                                                                                
ROH=0.7500000000000001                                                          
ROCL=1.683                                                                      
A=107.0                                                                         
                                                                                
                                                                                
*CFOUR(CALC=CCSD,BASIS=AUG-PCVTZ,SCF_CONV=10                                    
CC_CONV=10,DBOC=ON,MEMORY=500000000)                                            
                                                                                
%isotopes                                                                       
16                                                                              
1                                                                               
37                                                                              
********************************************************************************
  @GTFLGS-I, Hessian will be transformed to curvilinear coordinates.
    -------------------------------------------------------------------
                    CFOUR Control Parameters 
    -------------------------------------------------------------------
        External           Internal           Value            Units
          Name               Name
    -------------------------------------------------------------------
       ABCDTYPE             IABCDT         STANDARD    [  0]    ***   
       ANHARMONIC           IANHAR         OFF         [  0]    ***   
       ANH_ALGORIT          IANALG         STANDARD    [  0]    ***   
       ANH_DERIVAT          IANDER         SECOND      [  1]    ***   
       ANH_MODE             ANHMOD         VIBRATION   [  0]    ***   
       ANH_STEPSIZ          ICUBST             50000          x 10-6  
       ANH_SYMMETR          IANHSM         ABELIAN     [  0]    ***   
       AO_LADDERS           IAOLAD         SINGLEPASS  [  1]    ***   
       AV_SCF               IAVSCF         OFF         [  0]    ***   
       BASIS                IBASIS         AUG-PCVTZ   [ 51]    ***   
       BOTHVECTORS          BOTHVC         OFF         [  0]    ***   
       BOX_POTENT           IPIAB          OFF         [  0]    ***   
       BREIT                IBREIT         OFF         [  0]    ***   
       BRUCK_CONV           IBRTOL          10D-  4             ***   
       BRUECKNER            IBRKNR         OFF         [  0]    ***   
       BUFFERSIZE           IBUFFS              4096            ***   
       CACHE_RECS           ICHREC             10               ***   
       CALCLEVEL            ICLLVL         CCSD        [ 10]    ***   
       CCORBOPT             ICCORB         OFF         [  0]  x 0.01  
       CC_CONV              ICCCNV          10D- 10             ***   
       CC_EXPORDER          ICCEOR              5               ***   
       CC_EXTRAPOL          ICCEXT         DIIS        [  1]    ***   
       CC_GUESS             ICCGES         MP2         [  0]    ***   
       CC_MAXCYC            ICCCYC            100              cycles 
       CC_PROGRAM           ICCPRO         VCC         [  0]    ***   
       CHARGE               ICHRGE              0               ***   
       CHOLESKY             ICHOLE         OFF         [  0]    ***   
       CIS_CONV             ICISTL              5               ***   
       COMM_SIZE            IPSIZE            ***               ***   
       CONSTANT             ICONST         OLD         [  1]    ***   
       CONTINUUM            ICONTU         NONE        [  0]    ***   
       CONTRACTION          ICNTYP         GENERAL     [  1]    ***   
       COORDINATES          ICOORD         INTERNAL    [  0]    ***   
       CPHF_CONVER          ICPHFT          10D- 16             ***   
       CPHF_MAXCYC          ICPHFC             64              cycles 
       CUBIC                ICUBIC         OFF         [  0]    ***   
       CURVILINEAR          ICURVY         ON          [  1]    ***   
       DBOC                 IDBOC          ON          [  1]    ***   
       DCT                  IDCT           OFF         [  0]    ***   
       DERIV_LEV            IDRLVL         SECOND      [  2]    ***   
       DEVMEM_SIZE          IDVMEM          50000000           MByte  
       DIAG_MRCC            IEOMST          10D-  0             ***   
       DIFF_TYPE            IDIFTY         RELAXED     [  0]    ***   
       DIRECT               IDIRCT         OFF         [  0]    ***   
       DROPMO               IDRPMO      NONE         
       ECP                  IECP           OFF         [  0]    ***   
       EIGENVECTOR          IVEC                1               ***   
       EL_ANHARM            IELANH         OFF         [  0]    ***   
       EOMFOLLOW            IEOMSR         ENERGY      [  0]    ***   
       EOMIP                IEOMIP         OFF         [  0]    ***   
       EOMLEVEL             HBARFM         SAME        [  0]    ***   
       EOM_MRCC             IMRCCE         NEW         [  1]    ***   
       EOM_NONIT            EOMNON         OFF         [  0]    ***   
       EOM_NSING            IEOMSI          10D-  0             ***   
       EOM_NSTATES          IMRCCD         DAVIDSON    [  0]    ***   
       EOM_NTRIP            IEOMTR          10D-  0             ***   
       EOM_ORDER            IEXORD         ENERGY      [  0]    ***   
       EOM_PROPSTA          IEOMST              0               ***   
       ESTATE_CONV          IEXTOL          10D-  5             ***   
       ESTATE_DIAG          IEXDIG         ITERATIVE   [  0]    ***   
       ESTATE_LOCK          IESLOC         ON          [  1]    ***   
       ESTATE_MAXC          IEXMXC             40               ***   
       ESTATE_PROP          IEXPRP         OFF         [  0]    ***   
       EVAL_HESS            IRECAL              0            # of cyc.
       EXCITATION           IEXCIT              0               ***   
       EXCITE               IEXCIT         NONE        [  0]    ***   
       EXTERN_POT           IEXPOT         OFF         [  0]    ***   
       FCGRADNEW            IFCGNW         OFF         [  0]    ***   
       FC_FIELD             IFINFC              0             x 10-6  
       FD_CALTYPE           IFDCAL         GRADONLY    [  0]    ***   
       FD_PROJECT           IFDPRJ         OFF         [  1]    ***   
       FD_STEPSIZE          IDISFD              0            10-4 bohr
       FD_USEGROUP          IFDGRP         FULL        [  0]    ***   
       FILE_RECSIZ          IFLREC              4096           words  
       FINITE_PERT          IFIPER              0             x 10-6  
       FIXGEOM              IFIXGM         OFF         [  0]    ***   
       FOCK                 IFOCK          AO          [  1]    ***   
       FREQ_ALGORI          IVIALG         STANDARD    [  0]    ***   
       FROZEN_CORE          IFROCO         OFF         [  0]    ***   
       GAMMA_ABCD           IGABCD         STORE       [  0]    ***   
       GAMMA_ABCI           IGABCI         STORE       [  0]    ***   
       GENBAS_1             IGNBS1              0               ***   
       GENBAS_2             IGNBS2              0               ***   
       GENBAS_3             IGNBS3              0               ***   
       GENBAS_4             IGNBS4              0               ***   
       GEO_CONV             ICONTL              5              H/bohr 
       GEO_MAXCYC           IOPTCY             50               ***   
       GEO_MAXSTEP          IMXSTP            300            millibohr
       GEO_METHOD           INR            SINGLE_POINT[  5]    ***   
       GIAO                 IGIAO          OFF         [  1]    ***   
       GIMIC                IGIMIC         OFF         [  0]    ***   
       GRID                 IGRID          OFF         [  0]    ***   
       GRID_ALGO            IGALGO         SERIAL      [  0]    ***   
       GUESS                IGUESS         MOREAD      [  0]    ***   
       HBAR                 IHBAR          OFF         [  0]    ***   
       HESS_TYPE            IHESTP         SCF         [  0]    ***   
       HF2_FILE             IHF2Fl         USE         [  1]    ***   
       HFSTABILITY          ISTABL         OFF         [  0]    ***   
       INCORE               INCORE         OFF         [  0]    ***   
       INPUT_MRCC           IMRCC          ON          [  1]    ***   
       INTEGRALS            INTTYP         VMOL        [  1]    ***   
       JODA_PRINT           IJPRNT              0               ***   
       KEYWORD_OUT          IDMPKW         NO          [  0]    ***   
       LINDEP_TOL           ILINDP              8               ***   
       LINEQ_CONV           IZTACN          10D-  7           cycles  
       LINEQ_EXPOR          ILMAXD              5               ***   
       LINEQ_MAXCY          ILMAXC            100               ***   
       LINEQ_TYPE           ILTYPE         DIIS        [  1]    ***   
       LOCK_ORBOCC          ILOCOC         OFF         [  0]    ***   
       MEMORY_SIZE          IMEMSZ         500000000           words  
       MEM_UNIT             IMEMU          INTEGERWORDS[  0]    ***   
       MRCC                 IMRCCC         OFF         [  0]    ***   
       MULTIPLICTY          IMULTP              1               ***   
       NACOUPLING           IVCOUP         OFF         [  0]    ***   
       NEGEVAL              IDIE           ABORT       [  0]    ***   
       NEWNORM              INEWNO         OFF         [  0]    ***   
       NON-HF               INONHF         OFF         [  0]    ***   
       NTOP_TAMP            ITOPT2             15               ***   
       NUC_MODEL            INUCMO         POINT       [  0]    ***   
       OCCUPATION           IOCCU   ESTIMATED BY SCF 
       OPEN-SHELL           IOPEN          SPIN-ORBITAL[  0]    ***   
       OPTVIB               IOPTVB         OFF         [  0]    ***   
       ORBITALS             IORBTP         STANDARD    [  0]    ***   
       PARALLEL             IPARAL         ON          [  1]    ***   
       PARA_INT             IPINTS         ON          [  1]    ***   
       PARA_PRINT           IPPRIN              0               ***   
       PERT_ORB             IPTORB         STANDARD    [  0]    ***   
       POINTS               IGRDFD              0               ***   
       PRINT                IPRNT               0               ***   
       PROPS                IPROPS         OFF         [  0]    ***   
       PROP_INTEGR          IINTYP         INTERNAL    [  0]    ***   
       PSI                  IPSI           OFF         [  0]    ***   
       QC_ALG               IQCALG         FLM         [  0]    ***   
       QC_LINALG            IQCLIN         TRIDIAG     [  2]    ***   
       QC_MAXCYC            IQCMAX          10D-100           cycles  
       QC_MAXSCFCY          IQCMSC          10D- 15           cycles  
       QC_RTRUST            IQCRTR          10D-  0           x 10-3  
       QC_SKIPSCF           IQCSKI         OFF         [  0]    ***   
       QC_START             IQCSTA          10D-  1             ***   
       QRHFGUESS            IQGUES         OFF         [  0]    ***   
       QUARTIC              IQUART         OFF         [  0]    ***   
       RAMAN_INT            IRAMIN         OFF         [  0]    ***   
       RAMAN_ORB            IRAMRE         UNRELAXED   [  0]    ***   
       RDO                  IRDOFM         ON          [  1]    ***   
       REDUCE_REPR          REDREP         Ir          [  0]    ***   
       REFERENCE            IREFNC         RHF         [  0]    ***   
       RELATIVIST           IRELAT         OFF         [  0]    ***   
       RELAX_DENS           IRDENS         ON          [  1]    ***   
       RESET_FLAGS          IRESET         OFF         [  0]    ***   
       RESTART_CC           ICCRES         OFF         [  0]    ***   
       ROT_EVEC             ROTVEC              0               ***   
       SAVE_INTS            ISVINT         OFF         [  0]    ***   
       SCALE_ON             ISTCRT              0               ***   
       SCF_CONV             ISCFCV          10D- 10             ***   
       SCF_DAMPING          IDAMP               0             x 10-3  
       SCF_EXPORDE          IRPPOR              6               ***   
       SCF_EXPSTAR          IRPPLS              8               ***   
       SCF_EXTRAPO          IRPP           ON          [  1]    ***   
       SCF_MAXCYC           ISCFCY            150              cycles 
       SCF_NOSTOP           ISCFST         OFF         [  0]    ***   
       SCF_PRINT            ISCFPR              0               ***   
       SCF_PROG             ISCFPR         SCF         [  0]    ***   
       SD_FIELD             IFINSD              0             x 10-6  
       SOPERT               IPERSO         OFF         [  0]    ***   
       SPHERICAL            IDFGHI         ON          [  1]    ***   
       SPINORBIT            ISOCAL         OFF         [  0]    ***   
       SPINROTATIO          ISRCON         OFF         [  0]    ***   
       SPIN_FLIP            ISPFLP         OFF         [  0]    ***   
       SPIN_ORBIT           ISPORB         OFF         [  0]    ***   
       SPIN_SCAL            ISCSMP         OFF         [  0]    ***   
       STEEPSCALE           ISTPSC              1000          x 10-3  
       SUBGROUP             ISUBGP         DEFAULT     [  0]    ***   
       SUBGRPAXIS           ISBXYZ         X           [  0]    ***   
       SYMMETRY             ISYM           ON          [  0]    ***   
       SYM_CHECK            ISYMCK         OVERRIDE    [  1]    ***   
       T3_EXTRAPOL          IT3EXT         OFF         [  0]    ***   
       T4_EXTRAPOL          IT4EXP         OFF         [  0]    ***   
       TAMP_SUM             IEVERY              5               ***   
       TESTSUITE            ITESTS         OFF         [  0]    ***   
       THERMOCH             ITHERM         OFF         [  0]    ***   
       TOL_CHOLESK          ITOLCH          10D-  4             ***   
       TRANGRAD             IRESRM         OFF         [  0]    ***   
       TRANS_INV            ITRAIN         IGNORE      [  1]    ***   
       TREAT_PERT           ITREAT         SIMULTANEOUS[  0]    ***   
       TRIP_ALGORI          ITRALG         NORMAL      [  0]    ***   
       UIJ_THRESHO          IUIJTH              1               ***   
       UNITS                IUNITS         ANGSTROM    [  0]    ***   
       UNOS                 IUNOS          OFF         [  0]    ***   
       UPDATE_HESS          IHUPDT         ON          [  1]    ***   
       VIBPHASE             ISETPH         STANDARD    [  0]    ***   
       VIBRATION            IVIB           ANALYTIC    [  1]    ***   
       VIB_ALGORIT          IGEALG         STANDARD    [  0]    ***   
       VNATORB              IVNORB         OFF         [  0]    ***   
       VTRAN                IVTRAN         FULL/PARTIAL[  0]    ***   
       XFIELD               IXEFLD              0             x 10-6  
       XFORM_TOL            IXFTOL          10D- 11             ***   
       YFIELD               IYEFLD              0             x 10-6  
       ZFIELD               IZEFLD              0             x 10-6  
       ZSCALE_EXP           IZEXPS         OFF         [  0]    ***   
    -------------------------------------------------------------------
   3 entries found in Z-matrix 
   Job Title : Hypochlorous acid DBOC calculation                                              
   There are  3 unique internal coordinates.
   Of these,  0 will be optimized.
   User supplied Z-matrix: 
--------------------------------------------------------------------------------
       SYMBOL    BOND      LENGTH    ANGLE     ANGLE     DIHED     ANGLE
                  TO      (ANGST)    WRT      (DEG)      WRT      (DEG)
--------------------------------------------------------------------------------
        O    
        H          1         ROH  
        CL         1         ROCL       2        A    
                  *Initial values for internal coordinates* 
                      Name             Value
                        ROH             0.7500000000
                        ROCL            1.6830000000
                        A             107.0000000000
--------------------------------------------------------------------------------
  read isotopes from ZMAT file 
   Rotational constants (in cm-1): 
          0.4950389297             0.5021044586            35.1794261577
   Rotational constants (in MHz): 
      14840.8958322670         15052.7150908812       1054652.8116378796
********************************************************************************
   The full molecular point group is C s .
   The largest Abelian subgroup of the full molecular point group is C s .
   The computational point group is C s .
********************************************************************************
--------------------------------------------------------------------------------
   Analysis of internal coordinates specified by Z-matrix 
--------------------------------------------------------------------------------
   *The nuclear repulsion energy is   52.831338643187564 a.u.
   *There are   3 degrees of freedom within the tot. symm. molecular subspace.
   *Z-matrix requests optimization of   0 coordinates.
   *The optimization is constrained.
   *The following   3 parameters can have non-zero 
    derivatives within the totally symmetric subspace:
             A    [ 3]  ROCL [ 2]  ROH  [ 1]
   *The following   0 parameters are to be optimized:

   *The following coordinates must be varied in an  unconstrained optimization.
             A    [ 3]  ROCL [ 2]  ROH  [ 1]
--------------------------------------------------------------------------------


 ----------------------------------------------------------------
         Coordinates used in calculation (QCOMP) 
 ----------------------------------------------------------------
 Z-matrix   Atomic            Coordinates (in bohr)
  Symbol    Number           X              Y              Z
 ----------------------------------------------------------------
     O         8        -2.16896168     0.09018464    -0.00000000
     H         1        -2.62366758    -1.25218913     0.00000000
     CL       17         1.01002687    -0.00488310     0.00000000
 ----------------------------------------------------------------
 
   Interatomic distance matrix (Angstroms) 
 
                 O             H             CL   
                [ 1]        [ 2]        [ 3]
  O    [ 1]     0.00000
  H    [ 2]     0.75000     0.00000
  CL   [ 3]     1.68300     2.03300     0.00000
 rotcon2
   Rotational constants (in cm-1): 
         35.1794261577             0.5021044586             0.4950389297
   Rotational constants (in MHz): 
    1054652.8116378724         15052.7150908812         14840.8958322670
  ECPDATA file not present.   Using default ECPDATA. 
  @GTFLGS-I, Hessian will be transformed to curvilinear coordinates.
  There are  157 basis functions.
 @CHECKOUT-I, Total execution time (CPU/WALL):        0.19/       0.26 seconds.
--executable xjoda finished with status     0 in        0.31 seconds (walltime).
 --invoking executable--
/home/asmola/.local/bin/xvmol
 SERIAL VERSION OF MOLECULE STARTED
********************************************************************************
                    INPUT FROM MOL FILE
********************************************************************************
INTGRL        1    0    1    0    0    0    0    0    0                         
         *** CFOUR Program System (Release V0.1) ***                            
Hypochlorous acid DBOC calculation                                              
    3    1 Z          0.10E-08              0    0                              
   9999.00      3.00                                                            
          8.00000000    1    4    1    1    1    1                              
O #1  -2.168961682870368   0.090184642480012  -0.000000000000000                
   13    7                                                                      
   15330.0000000000       5.080000000000000E-004 -1.150000000000000E-004        
  0.000000000000000E+000  0.000000000000000E+000  0.000000000000000E+000        
  0.000000000000000E+000  0.000000000000000E+000                                
   2299.00000000000       3.929000000000000E-003 -8.950000000000000E-004        
  0.000000000000000E+000  0.000000000000000E+000  0.000000000000000E+000        
  0.000000000000000E+000  0.000000000000000E+000                                
   522.400000000000       2.024300000000000E-002 -4.636000000000000E-003        
  0.000000000000000E+000  0.000000000000000E+000  0.000000000000000E+000        
  0.000000000000000E+000  0.000000000000000E+000                                
   147.300000000000       7.918100000000000E-002 -1.872400000000000E-002        
  0.000000000000000E+000  0.000000000000000E+000  0.000000000000000E+000        
  0.000000000000000E+000  0.000000000000000E+000                                
   47.5500000000000       0.230687000000000      -5.846300000000000E-002        
  0.000000000000000E+000  0.000000000000000E+000  0.000000000000000E+000        
  0.000000000000000E+000  0.000000000000000E+000                                
   16.7600000000000       0.433118000000000      -0.136463000000000             
  0.000000000000000E+000  0.000000000000000E+000  0.000000000000000E+000        
  0.000000000000000E+000  0.000000000000000E+000                                
   6.20700000000000       0.350260000000000      -0.175740000000000             
  0.000000000000000E+000  0.000000000000000E+000  0.000000000000000E+000        
  0.000000000000000E+000  0.000000000000000E+000                                
   1.75200000000000       4.272800000000000E-002  0.160934000000000             
   1.00000000000000       0.000000000000000E+000  0.000000000000000E+000        
  0.000000000000000E+000  0.000000000000000E+000                                
  0.688200000000000      -8.154000000000000E-003  0.603418000000000             
  0.000000000000000E+000  0.000000000000000E+000  0.000000000000000E+000        
  0.000000000000000E+000  0.000000000000000E+000                                
  0.238400000000000       2.381000000000000E-003  0.378765000000000             
  0.000000000000000E+000   1.00000000000000       0.000000000000000E+000        
  0.000000000000000E+000  0.000000000000000E+000                                
   7.84500000000000       0.000000000000000E+000  0.000000000000000E+000        
  0.000000000000000E+000  0.000000000000000E+000   1.00000000000000             
  0.000000000000000E+000  0.000000000000000E+000                                
   21.0320000000000       0.000000000000000E+000  0.000000000000000E+000        
  0.000000000000000E+000  0.000000000000000E+000  0.000000000000000E+000        
   1.00000000000000       0.000000000000000E+000                                
  7.376000000000001E-002  0.000000000000000E+000  0.000000000000000E+000        
  0.000000000000000E+000  0.000000000000000E+000  0.000000000000000E+000        
  0.000000000000000E+000   1.00000000000000                                     
    8    6                                                                      
   34.4600000000000       1.592800000000000E-002  0.000000000000000E+000        
  0.000000000000000E+000  0.000000000000000E+000  0.000000000000000E+000        
  0.000000000000000E+000                                                        
   7.74900000000000       9.974000000000000E-002  0.000000000000000E+000        
  0.000000000000000E+000  0.000000000000000E+000  0.000000000000000E+000        
  0.000000000000000E+000                                                        
   2.28000000000000       0.310492000000000       0.000000000000000E+000        
  0.000000000000000E+000  0.000000000000000E+000  0.000000000000000E+000        
  0.000000000000000E+000                                                        
  0.715600000000000       0.491026000000000        1.00000000000000             
  0.000000000000000E+000  0.000000000000000E+000  0.000000000000000E+000        
  0.000000000000000E+000                                                        
  0.214000000000000       0.336337000000000       0.000000000000000E+000        
   1.00000000000000       0.000000000000000E+000  0.000000000000000E+000        
  0.000000000000000E+000                                                        
   15.1590000000000       0.000000000000000E+000  0.000000000000000E+000        
  0.000000000000000E+000   1.00000000000000       0.000000000000000E+000        
  0.000000000000000E+000                                                        
   57.4370000000000       0.000000000000000E+000  0.000000000000000E+000        
  0.000000000000000E+000  0.000000000000000E+000   1.00000000000000             
  0.000000000000000E+000                                                        
  5.974000000000000E-002  0.000000000000000E+000  0.000000000000000E+000        
  0.000000000000000E+000  0.000000000000000E+000  0.000000000000000E+000        
   1.00000000000000                                                             
    4    4                                                                      
   2.31400000000000        1.00000000000000       0.000000000000000E+000        
  0.000000000000000E+000  0.000000000000000E+000                                
  0.645000000000000       0.000000000000000E+000   1.00000000000000             
  0.000000000000000E+000  0.000000000000000E+000                                
   15.8580000000000       0.000000000000000E+000  0.000000000000000E+000        
   1.00000000000000       0.000000000000000E+000                                
  0.214000000000000       0.000000000000000E+000  0.000000000000000E+000        
  0.000000000000000E+000   1.00000000000000                                     
    2    2                                                                      
   1.42800000000000        1.00000000000000       0.000000000000000E+000        
  0.500000000000000       0.000000000000000E+000   1.00000000000000             
          1.00000000    1    3    1    1    1                                   
H #2  -2.623667580132993  -1.252189133200258   0.000000000000003                
    6    4                                                                      
   33.8700000000000       6.068000000000000E-003  0.000000000000000E+000        
  0.000000000000000E+000  0.000000000000000E+000                                
   5.09500000000000       4.530800000000000E-002  0.000000000000000E+000        
  0.000000000000000E+000  0.000000000000000E+000                                
   1.15900000000000       0.202822000000000       0.000000000000000E+000        
  0.000000000000000E+000  0.000000000000000E+000                                
  0.325800000000000       0.503903000000000        1.00000000000000             
  0.000000000000000E+000  0.000000000000000E+000                                
  0.102700000000000       0.383421000000000       0.000000000000000E+000        
   1.00000000000000       0.000000000000000E+000                                
  2.526000000000000E-002  0.000000000000000E+000  0.000000000000000E+000        
  0.000000000000000E+000   1.00000000000000                                     
    3    3                                                                      
   1.40700000000000        1.00000000000000       0.000000000000000E+000        
  0.000000000000000E+000                                                        
  0.388000000000000       0.000000000000000E+000   1.00000000000000             
  0.000000000000000E+000                                                        
  0.102000000000000       0.000000000000000E+000  0.000000000000000E+000        
   1.00000000000000                                                             
    2    2                                                                      
   1.05700000000000        1.00000000000000       0.000000000000000E+000        
  0.247000000000000       0.000000000000000E+000   1.00000000000000             
         17.00000000    1    4    1    1    1    1                              
CL#3   1.010026867403693  -0.004883097330701   0.000000000000000                
   18    8                                                                      
   456100.000000000       4.930000000000000E-005 -1.380000000000000E-005        
  4.200000000000000E-006  0.000000000000000E+000  0.000000000000000E+000        
  0.000000000000000E+000  0.000000000000000E+000  0.000000000000000E+000        
   68330.0000000000       3.830000000000000E-004 -1.073000000000000E-004        
  3.240000000000000E-005  0.000000000000000E+000  0.000000000000000E+000        
  0.000000000000000E+000  0.000000000000000E+000  0.000000000000000E+000        
   15550.0000000000       2.008500000000000E-003 -5.651000000000000E-004        
  1.711000000000000E-004  0.000000000000000E+000  0.000000000000000E+000        
  0.000000000000000E+000  0.000000000000000E+000  0.000000000000000E+000        
   4405.00000000000       8.385600000000000E-003 -2.361400000000000E-003        
  7.142000000000000E-004  0.000000000000000E+000  0.000000000000000E+000        
  0.000000000000000E+000  0.000000000000000E+000  0.000000000000000E+000        
   1439.00000000000       2.947030000000000E-002 -8.458900000000000E-003        
  2.567000000000000E-003  0.000000000000000E+000  0.000000000000000E+000        
  0.000000000000000E+000  0.000000000000000E+000  0.000000000000000E+000        
   520.400000000000       8.783249999999999E-002 -2.596380000000000E-002        
  7.885500000000000E-003  0.000000000000000E+000  0.000000000000000E+000        
  0.000000000000000E+000  0.000000000000000E+000  0.000000000000000E+000        
   203.100000000000       0.211473000000000      -6.863619999999999E-002        
  2.108670000000000E-002  0.000000000000000E+000  0.000000000000000E+000        
  0.000000000000000E+000  0.000000000000000E+000  0.000000000000000E+000        
   83.9600000000000       0.365364000000000      -0.141874000000000             
  4.422640000000000E-002  0.000000000000000E+000  0.000000000000000E+000        
  0.000000000000000E+000  0.000000000000000E+000  0.000000000000000E+000        
   36.2000000000000       0.340884000000000      -0.199319000000000             
  6.516700000000000E-002  0.000000000000000E+000  0.000000000000000E+000        
  0.000000000000000E+000  0.000000000000000E+000  0.000000000000000E+000        
   15.8300000000000       0.102133000000000      -1.956620000000000E-002        
  6.030100000000000E-003  0.000000000000000E+000  0.000000000000000E+000        
  0.000000000000000E+000  0.000000000000000E+000  0.000000000000000E+000        
   6.33400000000000       3.116800000000000E-003  0.499741000000000             
 -0.206495000000000       0.000000000000000E+000  0.000000000000000E+000        
  0.000000000000000E+000  0.000000000000000E+000  0.000000000000000E+000        
   2.69400000000000       1.057500000000000E-003  0.563736000000000             
 -0.405871000000000       0.000000000000000E+000  0.000000000000000E+000        
  0.000000000000000E+000  0.000000000000000E+000  0.000000000000000E+000        
  0.976800000000000      -3.780000000000000E-004  7.903250000000001E-002        
  7.595580000000000E-002   1.00000000000000       0.000000000000000E+000        
  0.000000000000000E+000  0.000000000000000E+000  0.000000000000000E+000        
  0.431300000000000       1.561000000000000E-004 -8.350900000000000E-003        
  0.725661000000000       0.000000000000000E+000  0.000000000000000E+000        
  0.000000000000000E+000  0.000000000000000E+000  0.000000000000000E+000        
  0.162500000000000      -5.140000000000000E-005  2.324600000000000E-003        
  0.394423000000000       0.000000000000000E+000   1.00000000000000             
  0.000000000000000E+000  0.000000000000000E+000  0.000000000000000E+000        
   15.0640000000000       0.000000000000000E+000  0.000000000000000E+000        
  0.000000000000000E+000  0.000000000000000E+000  0.000000000000000E+000        
   1.00000000000000       0.000000000000000E+000  0.000000000000000E+000        
   2.87400000000000       0.000000000000000E+000  0.000000000000000E+000        
  0.000000000000000E+000  0.000000000000000E+000  0.000000000000000E+000        
  0.000000000000000E+000   1.00000000000000       0.000000000000000E+000        
  5.910000000000000E-002  0.000000000000000E+000  0.000000000000000E+000        
  0.000000000000000E+000  0.000000000000000E+000  0.000000000000000E+000        
  0.000000000000000E+000  0.000000000000000E+000   1.00000000000000             
   12    7                                                                      
   663.300000000000       2.404500000000000E-003 -6.521000000000000E-004        
  0.000000000000000E+000  0.000000000000000E+000  0.000000000000000E+000        
  0.000000000000000E+000  0.000000000000000E+000                                
   156.800000000000       1.921480000000000E-002 -5.194500000000000E-003        
  0.000000000000000E+000  0.000000000000000E+000  0.000000000000000E+000        
  0.000000000000000E+000  0.000000000000000E+000                                
   49.9800000000000       8.850970000000000E-002 -2.469380000000000E-002        
  0.000000000000000E+000  0.000000000000000E+000  0.000000000000000E+000        
  0.000000000000000E+000  0.000000000000000E+000                                
   18.4200000000000       0.256020000000000      -7.281670000000000E-002        
  0.000000000000000E+000  0.000000000000000E+000  0.000000000000000E+000        
  0.000000000000000E+000  0.000000000000000E+000                                
   7.24000000000000       0.436927000000000      -0.134030000000000             
  0.000000000000000E+000  0.000000000000000E+000  0.000000000000000E+000        
  0.000000000000000E+000  0.000000000000000E+000                                
   2.92200000000000       0.350334000000000      -9.477420000000000E-002        
  0.000000000000000E+000  0.000000000000000E+000  0.000000000000000E+000        
  0.000000000000000E+000  0.000000000000000E+000                                
   1.02200000000000       5.854950000000000E-002  0.262289000000000             
   1.00000000000000       0.000000000000000E+000  0.000000000000000E+000        
  0.000000000000000E+000  0.000000000000000E+000                                
  0.381800000000000      -4.584200000000000E-003  0.564667000000000             
  0.000000000000000E+000  0.000000000000000E+000  0.000000000000000E+000        
  0.000000000000000E+000  0.000000000000000E+000                                
  0.130100000000000       2.269700000000000E-003  0.341250000000000             
  0.000000000000000E+000   1.00000000000000       0.000000000000000E+000        
  0.000000000000000E+000  0.000000000000000E+000                                
   9.48000000000000       0.000000000000000E+000  0.000000000000000E+000        
  0.000000000000000E+000  0.000000000000000E+000   1.00000000000000             
  0.000000000000000E+000  0.000000000000000E+000                                
   3.66800000000000       0.000000000000000E+000  0.000000000000000E+000        
  0.000000000000000E+000  0.000000000000000E+000  0.000000000000000E+000        
   1.00000000000000       0.000000000000000E+000                                
  4.190000000000000E-002  0.000000000000000E+000  0.000000000000000E+000        
  0.000000000000000E+000  0.000000000000000E+000  0.000000000000000E+000        
  0.000000000000000E+000   1.00000000000000                                     
    5    5                                                                      
   1.04600000000000        1.00000000000000       0.000000000000000E+000        
  0.000000000000000E+000  0.000000000000000E+000  0.000000000000000E+000        
  0.344000000000000       0.000000000000000E+000   1.00000000000000             
  0.000000000000000E+000  0.000000000000000E+000  0.000000000000000E+000        
   17.9570000000000       0.000000000000000E+000  0.000000000000000E+000        
   1.00000000000000       0.000000000000000E+000  0.000000000000000E+000        
   5.76000000000000       0.000000000000000E+000  0.000000000000000E+000        
  0.000000000000000E+000   1.00000000000000       0.000000000000000E+000        
  0.135000000000000       0.000000000000000E+000  0.000000000000000E+000        
  0.000000000000000E+000  0.000000000000000E+000   1.00000000000000             
    3    3                                                                      
  0.706000000000000        1.00000000000000       0.000000000000000E+000        
  0.000000000000000E+000                                                        
   11.7790000000000       0.000000000000000E+000   1.00000000000000             
  0.000000000000000E+000                                                        
  0.312000000000000       0.000000000000000E+000  0.000000000000000E+000        
   1.00000000000000                                                             
FINISH                                                                          
 
********************************************************************************
 ONE- AND TWO-ELECTRON INTEGRALS OVER SYMMETRY-ADAPTED AOS ARE CALCULATED.

  SPHERICAL HARMONICS ARE USED.
  
  INTEGRALS LESS THAN  0.10E-13 ARE NEGLECTED.

  NUCLEAR REPULSION ENERGY :   52.8313386432 A.U.
  @MOLECU-I, ONE ELECTRON INTEGRALS (CPU/WALL):        0.05/       0.06 SECONDS.
  @TWOEL-I,   14249462 INTEGRALS OF SYMMETRY TYPE  I I I I
  @TWOEL-I,   13494756 INTEGRALS OF SYMMETRY TYPE  I J I J
  @TWOEL-I,    6956639 INTEGRALS OF SYMMETRY TYPE  I I J J
  @TWOEL-I, TOTAL NUMBER OF 2-E INTEGRALS   34700857.
  @MOLECU-I, TWO ELECTRON INTEGRALS (CPU/WALL):       66.77/      10.10 SECONDS.
 @CHECKOUT-I, Total execution time (CPU/WALL):       66.83/      10.17 seconds.

Running with 14 threads/proc

--executable xvmol finished with status     0 in       10.20 seconds (walltime).
 --invoking executable--
/home/asmola/.local/bin/xvmol2ja
 @GETMEM-I,  Allocated    3814 MB of main memory.
 @CHECKOUT-I, Total execution time (CPU/WALL):        0.09/       0.04 seconds.
--executable xvmol2ja finished with status     0 in        0.07 seconds (walltime).
 --invoking executable--
/home/asmola/.local/bin/xvscf
  There are  157 functions in the AO basis.

  There are 2 irreducible representations.

       Irrep        # of functions
         1                104
         2                 53


  Parameters for SCF calculation: 
        SCF reference function:  RHF  
  Maximum number of iterations:  150
     Full symmetry point group: C s 
     Computational point group: C s 
        Initial density matrix: MOREAD                 
     SCF convergence tolerance: 10**(-10)
  DIIS convergence acceleration:  ON
          Latest start for DIIS:   8
                     DIIS order:   6

  Memory information:    1209746 words required.
  Fock matrices are constructed from AO integral file.
 @GETMEM-I,  Allocated       9 MB of main memory.
  Initialization and symmetry analysis required      0.001 seconds.

  @INITGES-I, Occupancies from core Hamiltonian:

          Alpha population by irrep:  10    3
           Beta population by irrep:  10    3


 total no. of electrons in initial guess :  0.000000000000000E+000
  --------------------------------------------------------------------
  Iteration         Total Energy            Largest Density Difference
  --------------------------------------------------------------------
       0            52.831338643187543              0.0000000000D+00
   current occupation vector 
    10  3
    10  3
       1          -364.335773267445802              0.1326458070D+02
   current occupation vector 
    10  3
    10  3
       2          -335.947565147083424              0.1325153088D+02
   current occupation vector 
    10  3
    10  3
       3          -420.137713110090033              0.1077011721D+02
   current occupation vector 
    10  3
    10  3
       4          -332.878575701257887              0.1084846218D+02
   current occupation vector 
    10  3
    10  3
       5          -419.762854311967317              0.1084845805D+02
   current occupation vector 
    10  3
    10  3
       6          -332.754336262054835              0.1083388673D+02
   current occupation vector 
    10  3
    10  3
       7          -419.748190413622297              0.1083388553D+02
   current occupation vector 
    10  3
    10  3
       8          -332.749555147085744              0.1083289303D+02
   current occupation vector 
    10  3
    10  3
       9          -448.877738684521262              0.1083434027D+02
   current occupation vector 
    10  3
    10  3
      10          -469.711730944359715              0.2293607291D+01
   current occupation vector 
    10  3
    10  3
      11          -484.642330782533236              0.1971206525D+01
   current occupation vector 
    10  3
    10  3
      12          -498.211644335353299              0.1230434808D+01
   current occupation vector 
    10  3
    10  3
      13          -503.124937943096711              0.1919779307D+00
   current occupation vector 
    10  3
    10  3
      14          -508.233624761296142              0.3757012539D+00
   current occupation vector 
    10  3
    10  3
      15          -511.939301466542929              0.5641669036D+01
   current occupation vector 
    10  3
    10  3
      16          -524.173096212509222              0.5578236119D+01
   current occupation vector 
    11  2
    11  2
      17          -531.729033795256214              0.3342643016D+01
   current occupation vector 
    10  3
    10  3
      18          -534.055650839586065              0.1270451411D+01
   current occupation vector 
    10  3
    10  3
      19          -534.765571569425560              0.6482393344D+00
   current occupation vector 
    10  3
    10  3
      20          -534.853942913047604              0.3171120892D+00
   current occupation vector 
    10  3
    10  3
      21          -534.857573302666651              0.5408594215D-01
   current occupation vector 
    10  3
    10  3
      22          -534.858599183281058              0.3161211662D-01
   current occupation vector 
    10  3
    10  3
      23          -534.858705994528123              0.1186663508D-01
   current occupation vector 
    10  3
    10  3
      24          -534.858724396976527              0.5472854586D-02
   current occupation vector 
    10  3
    10  3
      25          -534.858726955607949              0.2139168455D-02
   current occupation vector 
    10  3
    10  3
      26          -534.858727327456791              0.9862011032D-03
   current occupation vector 
    10  3
    10  3
      27          -534.858727363761318              0.2195109570D-03
   current occupation vector 
    10  3
    10  3
      28          -534.858727372293515              0.1858649906D-03
   current occupation vector 
    10  3
    10  3
      29          -534.858727372469275              0.1445261304D-04
   current occupation vector 
    10  3
    10  3
      30          -534.858727372487465              0.8592750163D-05
   current occupation vector 
    10  3
    10  3
      31          -534.858727372489966              0.1537551531D-05
   current occupation vector 
    10  3
    10  3
      32          -534.858727372490648              0.8951383755D-06
   current occupation vector 
    10  3
    10  3
      33          -534.858727372492694              0.3568040604D-06
   current occupation vector 
    10  3
    10  3
      34          -534.858727372493149              0.9303839910D-07
   current occupation vector 
    10  3
    10  3
      35          -534.858727372487465              0.8571738208D-08
   current occupation vector 
    10  3
    10  3
      36          -534.858727372486783              0.9029645698D-08
   current occupation vector 
    10  3
    10  3
      37          -534.858727372485760              0.1027771646D-08
   current occupation vector 
    10  3
    10  3
      38          -534.858727372485191              0.5159189742D-09
   current occupation vector 
    10  3
    10  3

  SCF has converged.

 Density matrix saved to file den.dat
 total electron number:   26.0000000000002     
     E(SCF)=      -534.858727372484282              0.7212275221D-10

  Eigenvector printing suppressed.

 @PUTMOS-I, Writing converged MOs to NEWMOS. 
 @PUTMOS-I, Symmetry   1 Full Blocks 26 Partial Blocksize   0
 @PUTMOS-I, Symmetry   2 Full Blocks 13 Partial Blocksize   1
 @PUTFOCK-I, Writing converged Fock matrix to NEWFOCK. 
 @PUTFOCK-I, Symmetry   1 Full Blocks 26 Partial Blocksize   0
 @PUTFOCK-I, Symmetry   2 Full Blocks 13 Partial Blocksize   1


 
  ORBITAL EIGENVALUES (ALPHA)  (1H = 27.2113834 eV)

       MO #        E(hartree)               E(eV)           FULLSYM    COMPSYM
       ----   --------------------   --------------------   -------   ---------
    1     1        -104.8984655675       -2854.4323646290     A'        A'  (1)
    2     2         -20.6182541029        -561.0512174319     A'        A'  (1)
    3     3         -10.6181522491        -288.9346118487     A'        A'  (1)
    4     4          -8.0848801010        -220.0007721721     A'        A'  (1)
    5     5          -8.0824965113        -219.9359113987     A'        A'  (1)
    6   105          -8.0823419402        -219.9317053047     A''       A'' (2)
    7     6          -1.4833027568         -40.3627200128     A'        A'  (1)
    8     7          -1.0922075142         -29.7204774211     A'        A'  (1)
    9     8          -0.7741523976         -21.0657577020     A'        A'  (1)
   10   106          -0.6233917814         -16.9633527721     A''       A'' (2)
   11     9          -0.6153631265         -16.7448819665     A'        A'  (1)
   12    10          -0.4772349586         -12.9862234316     A'        A'  (1)
   13   107          -0.4504481435         -12.2573171359     A''       A'' (2)
  +++++++++++++++++++++++++++++++++++++++++++++++++++++++++++++++++++++++++++++
   14    11           0.0319246366           0.8687135266     A'        A'  (1)
   15    12           0.0605243799           1.6469521066     A'        A'  (1)
   16    13           0.1092066110           2.9716629610     A'        A'  (1)
   17   108           0.1148320049           3.1247377128     A''       A'' (2)
   18    14           0.1388284020           3.7777128741     A'        A'  (1)
   19    15           0.1578265138           4.2946777768     A'        A'  (1)
   20    16           0.1705203009           4.6400932862     A'        A'  (1)
   21    17           0.1819989917           4.9524443403     A'        A'  (1)
   22   109           0.1820519708           4.9538859767     A''       A'' (2)
   23    18           0.2555242643           6.9531687231     A'        A'  (1)
   24   110           0.2696221858           7.3367926696     A''       A'' (2)
   25    19           0.3115966089           8.4789747912     A'        A'  (1)
   26    20           0.3226278621           8.7791504500     A'        A'  (1)
   27   111           0.3860507519          10.5049750231     A''       A'' (2)
   28    21           0.3913887345          10.6502289131     A'        A'  (1)
   29   112           0.4166452706          11.3374942003     A''       A'' (2)
   30    22           0.4357071084          11.8561931781     A'        A'  (1)
   31    23           0.4684366789          12.7468100688     A'        A'  (1)
   32    24           0.4981681335          13.5558440789     A'        A'  (1)
   33   113           0.6102390368          16.6054483967     A''       A'' (2)
   34    25           0.6229270404          16.9507065259     A'        A'  (1)
   35    26           0.6692339544          18.2107817169     A'        A'  (1)
   36    27           0.7142297969          19.4351808393     A'        A'  (1)
   37    28           0.7242470575          19.7077643573     A'        A'  (1)
   38   114           0.7246556546          19.7188828498     A''       A'' (2)
   39   115           0.7669369437          20.8694152190     A''       A'' (2)
   40    29           0.7935904133          21.5946929988     A'        A'  (1)
   41    30           0.8620948129          23.4587924811     A'        A'  (1)
   42   116           0.8736505740          23.7732407272     A''       A'' (2)
   43    31           0.9043064112          24.6074284661     A'        A'  (1)
   44   117           0.9046410647          24.6165348519     A''       A'' (2)
   45    32           0.9140883364          24.8736081841     A'        A'  (1)
   46   118           0.9293668586          25.2893579084     A''       A'' (2)
   47    33           0.9423026079          25.6413575429     A'        A'  (1)
   48    34           0.9676792312          26.3318905682     A'        A'  (1)
   49    35           1.0026156722          27.2825594596     A'        A'  (1)
   50   119           1.0263328522          27.9279367359     A''       A'' (2)
   51   120           1.1067658720          30.1166304777     A''       A'' (2)
   52    36           1.1168299432          30.3904877779     A'        A'  (1)
   53    37           1.1257350236          30.6328073334     A'        A'  (1)
   54   121           1.2355591106          33.6212726706     A''       A'' (2)
   55    38           1.2395256533          33.7292077873     A'        A'  (1)
   56    39           1.3110889068          35.6765429152     A'        A'  (1)
   57    40           1.3554066364          36.8824896459     A'        A'  (1)
   58    41           1.4189876533          38.6126170749     A'        A'  (1)
   59   122           1.4327384174          38.9867943891     A''       A'' (2)
   60   123           1.5106568823          41.1070636093     A''       A'' (2)
   61    42           1.5613014682          42.4851728546     A'        A'  (1)
   62   124           1.6430885424          44.7107122865     A''       A'' (2)
   63    43           1.6852163206          45.8570674131     A'        A'  (1)
   64    44           1.7287160470          47.0407551455     A'        A'  (1)
   65    45           1.8121690295          49.3116262460     A'        A'  (1)
   66   125           2.1695024137          59.0351619658     A''       A'' (2)
   67    46           2.2243164342          60.5267272927     A'        A'  (1)
   68    47           2.2455843646          61.1054571032     A'        A'  (1)
   69    48           2.2984092215          62.5428945360     A'        A'  (1)
   70   126           2.3000137965          62.5865572421     A''       A'' (2)
   71    49           2.3115032665          62.8992016164     A'        A'  (1)
   72   127           2.3368237227          63.5882062557     A''       A'' (2)
   73    50           2.3532278197          64.0345844291     A'        A'  (1)
   74    51           2.4425201951          66.4643534911     A'        A'  (1)
   75   128           2.4521819913          66.7272643313     A''       A'' (2)
   76    52           2.4704609114          67.2246590346     A'        A'  (1)
   77   129           2.4744504600          67.3332201705     A''       A'' (2)
   78    53           2.5019927145          68.0826830180     A'        A'  (1)
   79   130           2.5046050218          68.1537675150     A''       A'' (2)
   80    54           2.5726793633          70.0061645197     A'        A'  (1)
   81   131           2.6986376911          73.4336648708     A''       A'' (2)
   82    55           2.8229725427          76.8169881863     A'        A'  (1)
   83   132           2.8956088119          78.7935215583     A''       A'' (2)
   84    56           2.9462173888          80.1706509468     A'        A'  (1)
   85    57           2.9722256104          80.8783706346     A'        A'  (1)
   86   133           3.0497226507          82.9871723105     A''       A'' (2)
   87    58           3.0574209958          83.1966549309     A'        A'  (1)
   88    59           3.1239017047          85.0056869892     A'        A'  (1)
   89   134           3.1458037881          85.6016729791     A''       A'' (2)
   90    60           3.2664098170          88.8835298717     A'        A'  (1)
   91    61           3.3441456459          90.9988293170     A'        A'  (1)
   92   135           3.3758005402          91.8602027809     A''       A'' (2)
   93    62           3.5044011928          95.3596044456     A'        A'  (1)
   94    63           3.8703121324         105.3165473120     A'        A'  (1)
   95    64           3.9147743940         106.5264269589     A'        A'  (1)
   96   136           4.2743807855         116.3118143511     A''       A'' (2)
   97   137           4.3797404854         119.1787975395     A''       A'' (2)
   98   138           4.4474839425         121.0221907253     A''       A'' (2)
   99    65           4.5199134601         122.9930980982     A'        A'  (1)
  100    66           4.6842534256         127.4650159064     A'        A'  (1)
  101    67           4.6992112799         127.8720398145     A'        A'  (1)
  102    68           5.0850956577         138.3724875683     A'        A'  (1)
  103   139           5.7552345382         156.6078935763     A''       A'' (2)
  104    69           5.8254160015         158.5176282808     A'        A'  (1)
  105    70           5.8881175367         160.2238237956     A'        A'  (1)
  106    71           6.2194619672         169.2401641315     A'        A'  (1)
  107    72           6.3421653333         172.5790924706     A'        A'  (1)
  108   140           6.6980653265         182.2636236368     A''       A'' (2)
  109    73           6.7023226804         182.3794721280     A'        A'  (1)
  110   141           6.7713061659         184.2566081993     A''       A'' (2)
  111    74           6.8385360425         186.0860261462     A'        A'  (1)
  112   142           7.0275554553         191.2295058596     A''       A'' (2)
  113    75           7.1623322885         194.8969699394     A'        A'  (1)
  114   143           7.1764600966         195.2814071426     A''       A'' (2)
  115    76           7.6183920754         207.3069876557     A'        A'  (1)
  116   144           8.1163539739         220.8572197945     A''       A'' (2)
  117    77           8.1410826520         221.5301213357     A'        A'  (1)
  118    78           8.5575012776         232.8614482110     A'        A'  (1)
  119    79           9.9972697974         272.0395414089     A'        A'  (1)
  120    80          10.3427152065         281.4395888811     A'        A'  (1)
  121   145          10.3429286086         281.4453958487     A''       A'' (2)
  122   146          10.3805682475         282.4696224931     A''       A'' (2)
  123    81          10.4484191796         284.3159402210     A'        A'  (1)
  124    82          10.6326945020         289.3303266694     A'        A'  (1)
  125   147          12.6730527044         344.8512959872     A''       A'' (2)
  126    83          12.7295806301         346.3894990458     A'        A'  (1)
  127    84          13.2262039690         359.9033071269     A'        A'  (1)
  128    85          18.2838880682         497.5298882672     A'        A'  (1)
  129   148          26.3874985890         718.0403410721     A''       A'' (2)
  130    86          26.7177561359         727.0271058008     A'        A'  (1)
  131    87          27.6827792446         753.2867196010     A'        A'  (1)
  132    88          29.3866943254         799.6526061462     A'        A'  (1)
  133   149          36.8880378463        1003.7745407092     A''       A'' (2)
  134    89          36.8881881149        1003.7786297260     A'        A'  (1)
  135   150          36.8884841804        1003.7866860786     A''       A'' (2)
  136    90          36.8937284066        1003.9293887286     A'        A'  (1)
  137   151          36.8971609266        1004.0227923452     A''       A'' (2)
  138    91          36.8972853101        1004.0261769923     A'        A'  (1)
  139    92          36.9011752156        1004.1320267032     A'        A'  (1)
  140   152          43.9337280659        1195.4975185921     A''       A'' (2)
  141    93          44.0012261364        1197.3342344676     A'        A'  (1)
  142   153          44.0788701561        1199.4470356572     A''       A'' (2)
  143    94          44.1698875331        1201.9237443967     A'        A'  (1)
  144    95          44.6906462768        1216.0943102329     A'        A'  (1)
  145    96          46.4753599643        1264.6588386406     A'        A'  (1)
  146   154          46.4755046696        1264.6627762742     A''       A'' (2)
  147   155          46.4998495808        1265.3252349846     A''       A'' (2)
  148    97          46.5323260663        1266.2089650832     A'        A'  (1)
  149    98          46.6192647577        1268.5746871488     A'        A'  (1)
  150   156          55.0123844731        1496.9630856451     A''       A'' (2)
  151    99          55.0750641789        1498.6686871518     A'        A'  (1)
  152   100          55.6527643703        1514.3887085504     A'        A'  (1)
  153   101         103.8951767282        2827.1314873609     A'        A'  (1)
  154   157         138.4828486135        3768.3098879472     A''       A'' (2)
  155   102         138.7153718201        3774.6371660711     A'        A'  (1)
  156   103         139.4994257962        3795.9723594201     A'        A'  (1)
  157   104         150.2699668433        4089.0536812776     A'        A'  (1)


  VSCF finished.

 @CHECKOUT-I, Total execution time (CPU/WALL):       64.01/      12.55 seconds.
--executable xvscf finished with status     0 in       12.58 seconds (walltime).
 --invoking executable--
/home/asmola/.local/bin/xvtran
 @GETMEM-I,  Allocated    3814 MB of main memory.
  Full RHF integral transformation
  Transformation of IIII integrals :
  1 pass through the AO integral file was required.
    14249462 AO integrals were read.
    15933126 MO integrals were written to HF2.
  Transformation of IIJJ integrals :
  1 pass through the AO integral file was required.
     6956639 AO integrals were read.
     7813260 MO integrals were written to HF2.
  Transformation of IJIJ integrals :
  1 pass through the AO integral file was required.
    13494756 AO integrals were read.
    15193828 MO integrals were written to HF2.
  Summary of active molecular orbitals: 
------------------------------------------------------------------------
 
  Index      Eigenvalue    Symmetry    Index      Eigenvalue    Symmetry
------------------------------------------------------------------------
     1      -104.8984656        1        80         8.1410827        1
     2       -20.6182541        1        81         8.5575013        1
     3       -10.6181522        1        82         9.9972698        1
     4        -8.0848801        1        83        10.3427152        1
     5        -8.0824965        1        84        10.4484192        1
     6        -1.4833028        1        85        10.6326945        1
     7        -1.0922075        1        86        12.7295806        1
     8        -0.7741524        1        87        13.2262040        1
     9        -0.6153631        1        88        18.2838881        1
    10        -0.4772350        1        89        26.7177561        1
    11        -8.0823419        2        90        27.6827792        1
    12        -0.6233918        2        91        29.3866943        1
    13        -0.4504481        2        92        36.8881881        1
    14         0.0319246        1        93        36.8937284        1
    15         0.0605244        1        94        36.8972853        1
    16         0.1092066        1        95        36.9011752        1
    17         0.1388284        1        96        44.0012261        1
    18         0.1578265        1        97        44.1698875        1
    19         0.1705203        1        98        44.6906463        1
    20         0.1819990        1        99        46.4753600        1
    21         0.2555243        1       100        46.5323261        1
    22         0.3115966        1       101        46.6192648        1
    23         0.3226279        1       102        55.0750642        1
    24         0.3913887        1       103        55.6527644        1
    25         0.4357071        1       104       103.8951767        1
    26         0.4684367        1       105       138.7153718        1
    27         0.4981681        1       106       139.4994258        1
    28         0.6229270        1       107       150.2699668        1
    29         0.6692340        1       108         0.1148320        2
    30         0.7142298        1       109         0.1820520        2
    31         0.7242471        1       110         0.2696222        2
    32         0.7935904        1       111         0.3860508        2
    33         0.8620948        1       112         0.4166453        2
    34         0.9043064        1       113         0.6102390        2
    35         0.9140883        1       114         0.7246557        2
    36         0.9423026        1       115         0.7669369        2
    37         0.9676792        1       116         0.8736506        2
    38         1.0026157        1       117         0.9046411        2
    39         1.1168299        1       118         0.9293669        2
    40         1.1257350        1       119         1.0263329        2
    41         1.2395257        1       120         1.1067659        2
    42         1.3110889        1       121         1.2355591        2
    43         1.3554066        1       122         1.4327384        2
    44         1.4189877        1       123         1.5106569        2
    45         1.5613015        1       124         1.6430885        2
    46         1.6852163        1       125         2.1695024        2
    47         1.7287160        1       126         2.3000138        2
    48         1.8121690        1       127         2.3368237        2
    49         2.2243164        1       128         2.4521820        2
    50         2.2455844        1       129         2.4744505        2
    51         2.2984092        1       130         2.5046050        2
    52         2.3115033        1       131         2.6986377        2
    53         2.3532278        1       132         2.8956088        2
    54         2.4425202        1       133         3.0497227        2
    55         2.4704609        1       134         3.1458038        2
    56         2.5019927        1       135         3.3758005        2
    57         2.5726794        1       136         4.2743808        2
    58         2.8229725        1       137         4.3797405        2
    59         2.9462174        1       138         4.4474839        2
    60         2.9722256        1       139         5.7552345        2
    61         3.0574210        1       140         6.6980653        2
    62         3.1239017        1       141         6.7713062        2
    63         3.2664098        1       142         7.0275555        2
    64         3.3441456        1       143         7.1764601        2
    65         3.5044012        1       144         8.1163540        2
    66         3.8703121        1       145        10.3429286        2
    67         3.9147744        1       146        10.3805682        2
    68         4.5199135        1       147        12.6730527        2
    69         4.6842534        1       148        26.3874986        2
    70         4.6992113        1       149        36.8880378        2
    71         5.0850957        1       150        36.8884842        2
    72         5.8254160        1       151        36.8971609        2
    73         5.8881175        1       152        43.9337281        2
    74         6.2194620        1       153        44.0788702        2
    75         6.3421653        1       154        46.4755047        2
    76         6.7023227        1       155        46.4998496        2
    77         6.8385360        1       156        55.0123845        2
    78         7.1623323        1       157       138.4828486        2
    79         7.6183921        1
------------------------------------------------------------------------
  -104.898465567500       -20.6182541028739       -10.6181522490574     
  -8.08488010102772       -8.08249651131949       -1.48330275677018     
  -1.09220751419488      -0.774152397630423      -0.615363126538762     
 -0.477234958647760       -8.08234194019977      -0.623391781401428     
 -0.450448143548243       3.192463660460573E-002  6.052437990182839E-002
  0.109206610972690       0.138828402016318       0.157826513768201     
  0.170520300933026       0.181998991654472       0.255524264272395     
  0.311596608910873       0.322627862060136       0.391388734507053     
  0.435707108448674       0.468436678921831       0.498168133522082     
  0.622927040376758       0.669233954379732       0.714229796905595     
  0.724247057474653       0.793590413295906       0.862094812905887     
  0.904306411195987       0.914088336432955       0.942302607917904     
  0.967679231191781        1.00261567221845        1.11682994323113     
   1.12573502357921        1.23952565334606        1.31108890682890     
   1.35540663639536        1.41898765334132        1.56130146821610     
   1.68521632064828        1.72871604703025        1.81216902945227     
   2.22431643415633        2.24558436463894        2.29840922148759     
   2.31150326654664        2.35322781968866        2.44252019509883     
   2.47046091139299        2.50199271448852        2.57267936328851     
   2.82297254267153        2.94621738881510        2.97222561035189     
   3.05742099576084        3.12390170465334        3.26640981699086     
   3.34414564593760        3.50440119283421        3.87031213238406     
   3.91477439397208        4.51991346012226        4.68425342558495     
   4.69921127988298        5.08509565773543        5.82541600148128     
   5.88811753670891        6.21946196721199        6.34216533330068     
   6.70232268044142        6.83853604246243        7.16233228845692     
   7.61839207541604        8.14108265203647        8.55750127761000     
   9.99726979735014        10.3427152065001        10.4484191796350     
   10.6326945020144        12.7295806300606        13.2262039689953     
   18.2838880682279        26.7177561358687        27.6827792445506     
   29.3866943253691        36.8881881149048        36.8937284066434     
   36.8972853100981        36.9011752156360        44.0012261363985     
   44.1698875330508        44.6906462768422        46.4753599642655     
   46.5323260662746        46.6192647577330        55.0750641789045     
   55.6527643703111        103.895176728166        138.715371820131     
   139.499425796194        150.269966843274       0.114832004930784     
  0.182051970818660       0.269622185750470       0.386050751949057     
  0.416645270607604       0.610239036826544       0.724655654582889     
  0.766936943713208       0.873650574015386       0.904641064733721     
  0.929366858593811        1.02633285215292        1.10676587202482     
   1.23555911055080        1.43273841744681        1.51065688226882     
   1.64308854236626        2.16950241367681        2.30001379651048     
   2.33682372266756        2.45218199128092        2.47445045996705     
   2.50460502184421        2.69863769112239        2.89560881194638     
   3.04972265065042        3.14580378809787        3.37580054018518     
   4.27438078547410        4.37974048535357        4.44748394252174     
   5.75523453821540        6.69806532646769        6.77130616590889     
   7.02755545532606        7.17646009657022        8.11635397392360     
   10.3429286086448        10.3805682475186        12.6730527043774     
   26.3874985889946        36.8880378462918        36.8884841804344     
   36.8971609265979        43.9337280658833        44.0788701561281     
   46.4755046696450        46.4998495807684        55.0123844730763     
   138.482848613540     
 @CHECKOUT-I, Total execution time (CPU/WALL):       34.57/      19.63 seconds.
--executable xvtran finished with status     0 in       19.68 seconds (walltime).
 --invoking executable--
/home/asmola/.local/bin/xintprc
 @GETMEM-I,  Allocated    3814 MB of main memory.
  Processing integrals for CCSD calculation.
  @GMOIAA-I, Processing MO integrals for spin case AA.
  @GMOIAA-I, Generation of integral list completed.
                      TYPE                NUMBER
                      ----               --------
                      PPPP              27524020
                      PPPH               9932000
                      PPHH                900748
                      PHPH                491140
                      PHHH                 89950
                      HHHH                  2356

                     TOTAL              38940214

  @FORMT2-I, Second-order MP correlation energies:
            ------------------------------------------------
            E(SCF)                  =   -534.858727372484 a.u.
            E2(AA)                  =     -0.106187057058 a.u.
            E2(AB)                  =     -0.623392255321 a.u.
            E2(TOT)                 =     -0.835766369438 a.u.
            Total MP2 energy        =   -535.694493741922 a.u.
            ------------------------------------------------
   Largest T2 amplitudes for spin case AB:
       _       _                 _       _                 _       _
   i   j   a   b             i   j   a   b             i   j   a   b
-----------------------------------------------------------------------------
[  9   9  17  17]-0.02609 [  9   9  17  15]-0.02208 [  9   9  15  17]-0.02208
[  9   9  15  15]-0.02007 [ 13  13 112 112]-0.01786 [ 13  13 113 113]-0.01579
[ 13  13 116 116]-0.01489 [ 10  10  25  25]-0.01379 [ 13  13 117 117]-0.01292
[  9   9  18  17] 0.01290 [  9   9  17  18] 0.01290 [ 10  10  24  24]-0.01265
[ 10  10 117 117]-0.01258 [  9   9  20  17] 0.01245 [  9   9  17  20] 0.01245
-----------------------------------------------------------------------------
   Norm of T2AB vector (  1799624 symmetry allowed elements):  0.3158138001.
-----------------------------------------------------------------------------
 @CHECKOUT-I, Total execution time (CPU/WALL):        6.26/       7.77 seconds.
--executable xintprc finished with status     0 in        7.89 seconds (walltime).
  calling xvcc 
 --invoking executable--
/home/asmola/.local/bin/xvcc
 @GETMEM-I,  Allocated    3814 MB of main memory.
   CCSD energy will be calculated.
   The total correlation energy is -0.835766369438 a.u.
   The total correlation energy is -0.840455919862 a.u.
  Convergence information after     1 iterations: 
  Largest element of residual vector : -0.11409827E-01.
  Largest element of DIIS residual   : -0.11409827E-01.
   The total correlation energy is -0.852492357568 a.u.
  Convergence information after     2 iterations: 
  Largest element of residual vector : -0.32219943E-02.
  Largest element of DIIS residual   : -0.30898584E-02.
   The total correlation energy is -0.852664832960 a.u.
  Convergence information after     3 iterations: 
  Largest element of residual vector : -0.18320716E-02.
  Largest element of DIIS residual   : -0.94474457E-03.
   The total correlation energy is -0.853782660469 a.u.
  Convergence information after     4 iterations: 
  Largest element of residual vector : -0.24397809E-03.
  Largest element of DIIS residual   :  0.21206689E-03.
   The total correlation energy is -0.853878436276 a.u.
  Convergence information after     5 iterations: 
  Largest element of residual vector : -0.17740988E-03.
  Largest element of DIIS residual   : -0.10127216E-03.
   The total correlation energy is -0.853876611759 a.u.
  Convergence information after     6 iterations: 
  Largest element of residual vector : -0.64047424E-04.
  Largest element of DIIS residual   : -0.51032481E-04.
   The total correlation energy is -0.853876727963 a.u.
  Convergence information after     7 iterations: 
  Largest element of residual vector : -0.34889877E-04.
  Largest element of DIIS residual   : -0.26704443E-04.
   The total correlation energy is -0.853876362137 a.u.
  Convergence information after     8 iterations: 
  Largest element of residual vector : -0.16887223E-04.
  Largest element of DIIS residual   : -0.13191029E-04.
   The total correlation energy is -0.853876217037 a.u.
  Convergence information after     9 iterations: 
  Largest element of residual vector : -0.10965400E-04.
  Largest element of DIIS residual   : -0.71349424E-05.
   The total correlation energy is -0.853876717324 a.u.
  Convergence information after    10 iterations: 
  Largest element of residual vector : -0.60792335E-05.
  Largest element of DIIS residual   : -0.39378329E-05.
   The total correlation energy is -0.853876855479 a.u.
  Convergence information after    11 iterations: 
  Largest element of residual vector : -0.25309440E-05.
  Largest element of DIIS residual   : -0.14882278E-05.
   The total correlation energy is -0.853876942561 a.u.
  Convergence information after    12 iterations: 
  Largest element of residual vector : -0.14325922E-05.
  Largest element of DIIS residual   : -0.65402701E-06.
   The total correlation energy is -0.853876965203 a.u.
  Convergence information after    13 iterations: 
  Largest element of residual vector : -0.33137191E-06.
  Largest element of DIIS residual   : -0.29052196E-06.
   The total correlation energy is -0.853876963300 a.u.
  Convergence information after    14 iterations: 
  Largest element of residual vector : -0.20331116E-06.
  Largest element of DIIS residual   : -0.12022759E-06.
   The total correlation energy is -0.853876962179 a.u.
  Convergence information after    15 iterations: 
  Largest element of residual vector : -0.82890059E-07.
  Largest element of DIIS residual   : -0.63369997E-07.
   The total correlation energy is -0.853876961254 a.u.
  Convergence information after    16 iterations: 
  Largest element of residual vector : -0.47953930E-07.
  Largest element of DIIS residual   : -0.25486613E-07.
   The total correlation energy is -0.853876961692 a.u.
  Convergence information after    17 iterations: 
  Largest element of residual vector : -0.26604222E-07.
  Largest element of DIIS residual   : -0.22212327E-07.
   The total correlation energy is -0.853876961726 a.u.
  Convergence information after    18 iterations: 
  Largest element of residual vector : -0.15391490E-07.
  Largest element of DIIS residual   : -0.12806813E-07.
   The total correlation energy is -0.853876961841 a.u.
  Convergence information after    19 iterations: 
  Largest element of residual vector : -0.10482682E-07.
  Largest element of DIIS residual   : -0.67288635E-08.
   The total correlation energy is -0.853876961971 a.u.
  Convergence information after    20 iterations: 
  Largest element of residual vector : -0.44536175E-08.
  Largest element of DIIS residual   : -0.32212460E-08.
   The total correlation energy is -0.853876961988 a.u.
  Convergence information after    21 iterations: 
  Largest element of residual vector : -0.24141627E-08.
  Largest element of DIIS residual   : -0.16637888E-08.
   The total correlation energy is -0.853876961998 a.u.
  Convergence information after    22 iterations: 
  Largest element of residual vector : -0.11889003E-08.
  Largest element of DIIS residual   : -0.71821261E-09.
   The total correlation energy is -0.853876961992 a.u.
  Convergence information after    23 iterations: 
  Largest element of residual vector : -0.52418744E-09.
  Largest element of DIIS residual   : -0.30757557E-09.
   The total correlation energy is -0.853876961985 a.u.
  Convergence information after    24 iterations: 
  Largest element of residual vector : -0.25220712E-09.
  Largest element of DIIS residual   : -0.21690176E-09.
   The total correlation energy is -0.853876961984 a.u.
  Convergence information after    25 iterations: 
  Largest element of residual vector : -0.14799184E-09.
  Largest element of DIIS residual   : -0.12789334E-09.
   The total correlation energy is -0.853876961984 a.u.
  Convergence information after    26 iterations: 
  Largest element of residual vector : -0.98629539E-10.
  Largest element of DIIS residual   : -0.77594019E-10.
  Amplitude equations converged in    26iterations.
   The total correlation energy is -0.853876961985 a.u.
   The CC iterations have converged.

   Largest T1 amplitudes for spin case AA:
   i       a                 i       a                 i       a    
-----------------------------------------------------------------------------
[...]
 final tnorm  0.852841965169396     
  norm contr. I: |<0|L dT/dx|0>|^2   0.000000000000000E+000
  norm contr. II: <0|[nabla(1+L)e-T][nabla e^T]|0>  0.503635208463447     
  total norm contribution  0.503635208463447     
 oo  2.139765293972128E-003
 vv  -1.60635765160163     
 vo -2.399586327847097E-002
  Correlated perturbed 1-el contribution to DBOC  -1.62821374958613       cm**-1
  SUM_I |dc_I/dx|^2 contribution to DBOC  0.820386639680208       cm**-1
 
 
  The total diagonal Born-Oppenheimer correction (DBOC) is:      0.0084513299 a.u.
  The total diagonal Born-Oppenheimer correction (DBOC) is:       1854.852521 cm-1
 
 Total CC energy including DBOC  -535.704153004540     
 First-order density matrix is being calculated  (Symmetry block 2, perturbation   3)
 Calculation of the contributions of <pq||rs> to dI(i,j)/dx required   2.5 seconds.
 Calculation of the contributions of <pq||rs> to dI(a,b)/dx required   9.7 seconds.
 Calculation of the contributions of <pq||rs> to dI(i,a)/dx required   6.0 seconds.
 First-order Z-vector equations are solved for 1 perturbation.
 Convergence reached after  23 iterations.
        U*G(pq,rs) contribution is being calculated
             (Symmetry block 2, perturbation   3)

 CCSD contribution to force constants 

        0.0000000000        0.0000000000        0.0000000000
        0.0000000000        0.0000000000        0.0000000000
        0.0000000000        0.0000000000        0.0000000000
        0.0000000000        0.0000000000        0.0000000000
        0.0000000000        0.0000000000        0.0000000000
        0.0000000000        0.0000000000        0.0000000000
        0.0000000000        0.0000000000        0.0000000000
        0.0000000000        0.0000000000        0.0000000000
        0.0000000000        0.0000000000        0.0000000000
        0.0000000000        0.0000000000        0.0000000000
        0.0000000000        0.0000000000        0.0000000000
        0.0000000000        0.0000000000        0.0000000000
        0.0000000000        0.0000000000        0.0000000000
        0.0000000000        0.0000000000        0.0000000000
        0.0000000000        0.0000000000        0.0000000000
        0.0000000000        0.0000000000        0.0000000000
        0.0000000000        0.0000000000        0.0000000000
        0.0000000000        0.0000000000        0.0000000000
        0.0000000000        0.0000000000        0.0000000000
        0.0000000000        0.0000000000        0.0000000000
        0.0000000000        0.0000000000        0.0000000000
        0.0000000000        0.0000000000        0.0000000000
        0.0000000000        0.0000000000        0.0000000000
        0.0000000000        0.0000000000        0.0000000000
        0.0000000000        0.0000000000        0.0000000000
        0.0000000000        0.0000000000        0.0000000000
        0.0454052871        0.1570946524       -0.2024999396

 CCSD contribution to dipole derivatives 

        0.0000000000        0.0000000000        0.0000000000
        0.0000000000        0.0000000000        0.0000000000
        0.0000000000        0.0000000000        0.0000000000
        0.0000000000        0.0000000000        0.0000000000
        0.0000000000        0.0000000000        0.0000000000
        0.0000000000        0.0000000000        0.0000000000
        0.0000000000        0.0000000000        0.0000000000
        0.0000000000        0.0000000000        0.0000000000
        0.0000000000        0.0000000000        0.0114145707
 @CHECKOUT-I, Total execution time (CPU/WALL):      923.75/     252.19 seconds.
--executable xsdcc finished with status     0 in      252.36 seconds (walltime).
 --invoking executable--
/home/asmola/.local/bin/xanti
 @GETMEM-I,  Allocated    3814 MB of main memory.
 CCSD MO derivative gammas will be sorted to Mulliken order.
 @CHECKOUT-I, Total execution time (CPU/WALL):        6.35/       5.79 seconds.
--executable xanti finished with status     0 in        5.92 seconds (walltime).
 --invoking executable--
/home/asmola/.local/bin/xbcktrn
 @GETMEM-I,  Allocated    3814 MB of main memory.
 CCSD MO derivative gammas will be transformed to the AO basis.
 @CHECKOUT-I, Total execution time (CPU/WALL):       20.39/      13.37 seconds.
--executable xbcktrn finished with status     0 in       13.44 seconds (walltime).
 --invoking executable--
/home/asmola/.local/bin/xvdint
 @GETMEM-I,  Allocated    3814 MB of main memory.
 One- and two-electron integral derivatives are calculated
 for RHF-CC/MBPT hessians and dipole derivatives.
 Spherical gaussians are used.
  magnet F F
 Evaluation of 2el integral derivatives

                      Two-electron integral gradient
                      ------------------------------

                         O #1 x     0.0000000000
                         O #1 y     0.0000000000
                         H #2 x     0.0000000000
                         H #2 y     0.0000000000
                         CL#3 x     0.0000000000
                         CL#3 y     0.0000000000


 O #1       0.0000000000            0.0000000000           -0.0899296802
 H #2       0.0000000000            0.0000000000            0.0016288061
 CL#3       0.0000000000            0.0000000000            0.0883008741


 Evaluation of 2e integral derivatives required  110.38 seconds.
  contribution to Hessian
        0.0000000000        0.0000000000        0.0000000000
        0.0000000000        0.0000000000        0.0000000000
       -0.0899296802        0.0016288061        0.0883008741
 @CHECKOUT-I, Total execution time (CPU/WALL):      110.48/      19.61 seconds.
--executable xvdint finished with status     0 in       19.73 seconds (walltime).
 --invoking executable--
/home/asmola/.local/bin/xanti
 @GETMEM-I,  Allocated    3814 MB of main memory.
 CCSD MO gammas will be sorted to Mulliken order.
 @CHECKOUT-I, Total execution time (CPU/WALL):        8.53/      15.56 seconds.
--executable xanti finished with status     0 in       15.67 seconds (walltime).
 --invoking executable--
/home/asmola/.local/bin/xbcktrn
 @GETMEM-I,  Allocated    3814 MB of main memory.
 CCSD MO gammas will be transformed to the AO basis.
 @CHECKOUT-I, Total execution time (CPU/WALL):       18.22/       2.92 seconds.
--executable xbcktrn finished with status     0 in        2.98 seconds (walltime).
 --invoking executable--
/home/asmola/.local/bin/xvdint
 @GETMEM-I,  Allocated    3814 MB of main memory.
 One- and two-electron integral derivatives are calculated
 for RHF-CC/MBPT hessians and dipole derivatives.
 Spherical gaussians are used.
  magnet F F

                     Kinetic energy integral gradient
                     --------------------------------

                         O #1 x    -0.1435136723
                         O #1 y    -0.9383954333
                         H #2 x     0.4883230531
                         H #2 y     0.9646876208
                         CL#3 x    -0.3448093808
                         CL#3 y    -0.0262921874


 O #1      -0.1435136723           -0.9383954333            0.0000000000
 H #2       0.4883230531            0.9646876208            0.0000000000
 CL#3      -0.3448093808           -0.0262921874            0.0000000000



                   Nuclear attraction integral gradient
                   ------------------------------------

                         O #1 x   -22.6613104474
                         O #1 y     7.0962871852
                         H #2 x    -5.8127967014
                         H #2 y    -7.4470561044
                         CL#3 x    28.4741071488
                         CL#3 y     0.3507689193


 O #1     -22.6613104474            7.0962871852            0.0000000000
 H #2      -5.8127967014           -7.4470561044            0.0000000000
 CL#3      28.4741071488            0.3507689193            0.0000000000



                      Reorthonormalization gradient
                      -----------------------------

                         O #1 x     0.0000000000
                         O #1 y     0.0000000000
                         H #2 x     0.0000000000
                         H #2 y     0.0000000000
                         CL#3 x     0.0000000000
                         CL#3 y     0.0000000000


 O #1       0.0000000000            0.0000000000            0.0000000000
 H #2       0.0000000000            0.0000000000            0.0000000000
 CL#3       0.0000000000            0.0000000000            0.0000000000



                     Kinetic energy integral Hessian
                     -------------------------------


           Symmetry 1

           O #1 x      O #1 y      H #2 x      H #2 y      CL#3 x      CL#3 y

 O #1 x   -1.071125
 O #1 y    0.554558   -0.680917
 H #2 x    1.449140   -0.547445   -1.464600
 H #2 y   -0.547445    0.466295    0.560940   -0.463551
 CL#3 x   -0.378015   -0.007113    0.015461   -0.013495    0.362554
 CL#3 y   -0.007113    0.214622   -0.013495   -0.002744    0.020608   -0.211878


           Symmetry 2

           O #1 z      H #2 z      CL#3 z

 O #1 z   -2.078150
 H #2 z    1.873115   -1.878454
 CL#3 z    0.205035    0.005339   -0.210373




           O #1 x      O #1 y      O #1 z      H #2 x      H #2 y      H #2 z

 O #1 x   -1.071125
 O #1 y    0.554558   -0.680917
 O #1 z    0.000000    0.000000   -2.078150

 H #2 x    1.449140   -0.547445    0.000000   -1.464600
 H #2 y   -0.547445    0.466295    0.000000    0.560940   -0.463551
 H #2 z    0.000000    0.000000    1.873115    0.000000    0.000000   -1.878454

 CL#3 x   -0.378015   -0.007113    0.000000    0.015461   -0.013495    0.000000
 CL#3 y   -0.007113    0.214622    0.000000   -0.013495   -0.002744    0.000000
 CL#3 z    0.000000    0.000000    0.205035    0.000000    0.000000    0.005339


           CL#3 x      CL#3 y      CL#3 z

 CL#3 x    0.362554
 CL#3 y    0.020608   -0.211878
 CL#3 z    0.000000    0.000000   -0.210373




                   Nuclear attraction integral Hessian
                   -----------------------------------


           Symmetry 1

           O #1 x      O #1 y      H #2 x      H #2 y      CL#3 x      CL#3 y

 O #1 x   -3.138319
 O #1 y   -3.160958   14.821545
 H #2 x  -11.340923    3.752504   10.800133
 H #2 y    4.081811   -4.412227   -4.748602    4.396393
 CL#3 x   14.479242   -0.591546    0.540790    0.666791  -15.020032
 CL#3 y   -0.920853  -10.409318    0.996098    0.015834   -0.075245   10.393484


           Symmetry 2

           O #1 z      H #2 z      CL#3 z

 O #1 z   24.040743
 H #2 z  -14.269560   14.801752
 CL#3 z   -9.771183   -0.532192   10.303375




           O #1 x      O #1 y      O #1 z      H #2 x      H #2 y      H #2 z

 O #1 x   -3.138319
 O #1 y   -3.160958   14.821545
 O #1 z    0.000000    0.000000   24.040743

 H #2 x  -11.340923    3.752504    0.000000   10.800133
 H #2 y    4.081811   -4.412227    0.000000   -4.748602    4.396393
 H #2 z    0.000000    0.000000  -14.269560    0.000000    0.000000   14.801752

 CL#3 x   14.479242   -0.591546    0.000000    0.540790    0.666791    0.000000
 CL#3 y   -0.920853  -10.409318    0.000000    0.996098    0.015834    0.000000
 CL#3 z    0.000000    0.000000   -9.771183    0.000000    0.000000   -0.532192


           CL#3 x      CL#3 y      CL#3 z

 CL#3 x  -15.020032
 CL#3 y   -0.075245   10.393484
 CL#3 z    0.000000    0.000000   10.303375




                Highest order reorthonormalization Hessian
                ------------------------------------------


           Symmetry 1

           O #1 x      O #1 y      H #2 x      H #2 y      CL#3 x      CL#3 y

 O #1 x    0.000000
 O #1 y    0.000000    0.000000
 H #2 x    0.000000    0.000000    0.000000
 H #2 y    0.000000    0.000000    0.000000    0.000000
 CL#3 x    0.000000    0.000000    0.000000    0.000000    0.000000
 CL#3 y    0.000000    0.000000    0.000000    0.000000    0.000000    0.000000


           Symmetry 2

           O #1 z      H #2 z      CL#3 z

 O #1 z    0.000000
 H #2 z    0.000000    0.000000
 CL#3 z    0.000000    0.000000    0.000000




           O #1 x      O #1 y      O #1 z      H #2 x      H #2 y      H #2 z


           CL#3 x      CL#3 y      CL#3 z




                Electronic contributions to dipole moment
                -----------------------------------------

                               au             Debye

                    x      2.74601771      6.97968203
                    y      0.12015766      0.30541036

  Conversion factor used: 1 a.u. =   2.54174691 Debye 



   Electronic contributions to static part of dipole moment derivatives
   --------------------------------------------------------------------


                     Total dipole moment derivatives
                     -------------------------------


           Symmetry 1
                              Ex             Ey

               O #1 x    -8.56374655    -0.07708838
               O #1 y     0.04081419    -8.49334780
               H #2 x    -0.64952417     0.11586663
               H #2 y     0.00802839    -0.64956303
               CL#3 x   -16.78672928    -0.03877825
               CL#3 y    -0.04884258   -16.85708917

           Symmetry 2
                              Ez

               O #1 z    -8.11801365
               H #2 z    -1.01177430
               CL#3 z   -16.87021205



                       Ex          Ey          Ez

      O #1    x   -8.563747   -0.077088    0.000000
      O #1    y    0.040814   -8.493348    0.000000
      O #1    z    0.000000    0.000000   -8.118014

      H #2    x   -0.649524    0.115867    0.000000
      H #2    y    0.008028   -0.649563    0.000000
      H #2    z    0.000000    0.000000   -1.011774

      CL#3    x  -16.786729   -0.038778    0.000000
      CL#3    y   -0.048843  -16.857089    0.000000
      CL#3    z    0.000000    0.000000  -16.870212

 Evaluation of 1e integral derivatives required    1.58 seconds.
 Evaluation of 2el integral derivatives

                      Two-electron integral gradient
                      ------------------------------

                         O #1 x    10.4563041636
                         O #1 y    -2.2327229224
                         H #2 x     2.9780105623
                         H #2 y     2.5760313630
                         CL#3 x   -13.4343147259
                         CL#3 y    -0.3433084406


 O #1      10.4563041636           -2.2327229224            0.0000000000
 H #2       2.9780105623            2.5760313630            0.0000000000
 CL#3     -13.4343147259           -0.3433084406            0.0000000000


 Evaluation of 2e integral derivatives required  277.75 seconds.

                            Molecular gradient
                            ------------------

                         O #1 x    -0.1868904289
                         O #1 y    -0.2488320479
                         H #2 x     0.0206747089
                         H #2 y     0.2397097865
                         CL#3 x     0.1662157200
                         CL#3 y     0.0091222614


 O #1      -0.1868904289           -0.2488320479            0.0000000000
 H #2       0.0206747089            0.2397097865            0.0000000000
 CL#3       0.1662157200            0.0091222614            0.0000000000


  Molecular gradient norm 0.427E+00

                            Molecular hessian
                            -----------------


           Symmetry 1

           O #1 x      O #1 y      H #2 x      H #2 y      CL#3 x      CL#3 y

 O #1 x    5.128833
 O #1 y    2.912391    5.817084
 H #2 x   -3.363319   -6.169775    3.025512
 H #2 y   -2.962618   -5.561079    3.302504    4.833087
 CL#3 x   -1.765513    0.277207   -0.566679   -0.343772    2.332192
 CL#3 y    0.050227   -0.256006   -0.389068   -0.063449    0.338842    0.319455


           Symmetry 2

           O #1 z      H #2 z      CL#3 z

 O #1 z   -8.951130
 H #2 z    9.092403   -9.570559
 CL#3 z   -0.141274    0.158752   -0.017479




           O #1 x      O #1 y      O #1 z      H #2 x      H #2 y      H #2 z

 O #1 x    5.128833
 O #1 y    2.912391    5.817084
 O #1 z    0.000000    0.000000   -8.951130

 H #2 x   -3.363319   -6.169775    0.000000    3.025512
 H #2 y   -2.962618   -5.561079    0.000000    3.302504    4.833087
 H #2 z    0.000000    0.000000    9.092403    0.000000    0.000000   -9.570559

 CL#3 x   -1.765513    0.277207    0.000000   -0.566679   -0.343772    0.000000
 CL#3 y    0.050227   -0.256006    0.000000   -0.389068   -0.063449    0.000000
 CL#3 z    0.000000    0.000000   -0.141274    0.000000    0.000000    0.158752


           CL#3 x      CL#3 y      CL#3 z

 CL#3 x    2.332192
 CL#3 y    0.338842    0.319455
 CL#3 z    0.000000    0.000000   -0.017479




                           Total dipole moment
                           -------------------

                               au             Debye

                    x     -0.05888659     -0.14967481
                    y     -0.49356699     -1.25452237

  Conversion factor used: 1 a.u. =   2.54174691 Debye 



                     Total dipole moment derivatives
                     -------------------------------


           Symmetry 1
                              Ex             Ey

               O #1 x    -0.51848496    -0.03018188
               O #1 y    -0.26576495    -0.20618063
               H #2 x     0.23956819     0.03039273
               H #2 y     0.19194649     0.20876933
               CL#3 x     0.27891706    -0.00021092
               CL#3 y     0.07381860    -0.00258874

           Symmetry 2
                              Ez

               O #1 z    -0.39656622
               H #2 z     0.36408220
               CL#3 z     0.03248399



                       Ex          Ey          Ez

      O #1    x   -0.518485   -0.030182    0.000000
      O #1    y   -0.265765   -0.206181    0.000000
      O #1    z    0.000000    0.000000   -0.396566

      H #2    x    0.239568    0.030393    0.000000
      H #2    y    0.191946    0.208769    0.000000
      H #2    z    0.000000    0.000000    0.364082

      CL#3    x    0.278917   -0.000211    0.000000
      CL#3    y    0.073819   -0.002589    0.000000
      CL#3    z    0.000000    0.000000    0.032484

  Molecular gradient does not satisfy rotational invariance condition.
   rotational invariance in yz-plane :        0.0000E+00
   rotational invariance in xz-plane :        0.0000E+00
   rotational invariance in xy-plane :        0.3644E-01
 @CHECKOUT-I, Total execution time (CPU/WALL):      279.40/      40.03 seconds.
--executable xvdint finished with status     0 in       40.14 seconds (walltime).
 --invoking executable--
/home/asmola/.local/bin/xjoda
  @GTFLGS-I, Hessian will be transformed to curvilinear coordinates.
  @GTFLGS-I, Hessian will be transformed to curvilinear coordinates.
  igrd and ihes are                      0                     1
  gradient from JOBARC 
  -0.186890428888834  -0.248832047902532   0.000000000000000
   0.020674708861952   0.239709786477625   0.000000000000000
   0.166215720026891   0.009122261424917   0.000000000000000
 
  @PROJFCM-I, Projecting force constant matrix onto totally symmetric subspace.
  Largest difference between matrix elements of symmetrized
  and unsymmetrized FCM :     0.0000000000E+00.
  read isotopes from ZMAT file 
 
  Summary of diagonal Born-Oppenheimer correction at the correlated level
  The total diagonal Born-Oppenheimer correction (DBOC) is:      0.0084513299 a.u.
  The total diagonal Born-Oppenheimer correction (DBOC) is:       1854.852521 cm-1
  The total diagonal Born-Oppenheimer correction (DBOC) is:            22.189 kJ/mole
  hellooooooo 
  readis is  F
 
 @CHECKOUT-I, Total execution time (CPU/WALL):        0.01/       0.04 seconds.
--executable xjoda finished with status     0 in        0.08 seconds (walltime).
  The final electronic energy is      -535.704153004540103 a.u. 
  This computation required                         2920.37 seconds (walltime).
