 --invoking executable--
/home/asmola/.local/bin/xjoda


   *************************************************************************
         <<<     CCCCCC     CCCCCC   |||     CCCCCC     CCCCCC   >>>
       <<<      CCC        CCC       |||    CCC        CCC         >>>
      <<<      CCC        CCC        |||   CCC        CCC            >>>
    <<<        CCC        CCC        |||   CCC        CCC              >>>
      <<<      CCC        CCC        |||   CCC        CCC            >>>
       <<<      CCC        CCC       |||    CCC        CCC         >>>
         <<<     CCCCCC     CCCCCC   |||     CCCCCC     CCCCCC   >>>
   *************************************************************************

     ****************************************************************
     * CFOUR Coupled-Cluster techniques for Computational Chemistry *
     ****************************************************************
 

   Department of Chemistry                Institut fuer Physikalische Chemie
   University of Florida                  Universitaet Mainz
   Gainesville, FL 32611, USA             D-55099 Mainz, Germany

   Department of Chemistry                Fakultaet fuer Chemie und Biowiss.
   Johns Hopkins University               Karlsruher Institut fuer Technologie
   Baltimore, MD 21218, USA               D-76131 Karlsruhe, Germany

   Department of Chemistry                Department of Physical Chemistry
   Southern Methodist University          Eotvos Lorand University
   Dallas, TX 75275, USA                  H-1053 Budapest, Hungary

 
                       Version 2.1
 
                     vincent.theory.phys.ucl.ac.uk                     
                     Tue 28 Jan 22:37:29 GMT 2025                      
                     integer*8 version is running
 
********************************************************************************
*                          Input from ZMAT file                                *
********************************************************************************
Hypochlorous acid DBOC calculation                                              
O                                                                               
H 1 ROH                                                                         
CL 1 ROCL 2 A                                                                   
                                                                                
ROH=0.96                                                                        
ROCL=1.683                                                                      
A=107.0                                                                         
                                                                                
                                                                                
*CFOUR(CALC=CCSD,BASIS=AUG-PCVTZ,SCF_CONV=10                                    
CC_CONV=10,DBOC=ON,MEMORY=500000000)                                            
                                                                                
%isotopes                                                                       
16                                                                              
1                                                                               
37                                                                              
********************************************************************************
  @GTFLGS-I, Hessian will be transformed to curvilinear coordinates.
    -------------------------------------------------------------------
                    CFOUR Control Parameters 
    -------------------------------------------------------------------
        External           Internal           Value            Units
          Name               Name
    -------------------------------------------------------------------
       ABCDTYPE             IABCDT         STANDARD    [  0]    ***   
       ANHARMONIC           IANHAR         OFF         [  0]    ***   
       ANH_ALGORIT          IANALG         STANDARD    [  0]    ***   
       ANH_DERIVAT          IANDER         SECOND      [  1]    ***   
       ANH_MODE             ANHMOD         VIBRATION   [  0]    ***   
       ANH_STEPSIZ          ICUBST             50000          x 10-6  
       ANH_SYMMETR          IANHSM         ABELIAN     [  0]    ***   
       AO_LADDERS           IAOLAD         SINGLEPASS  [  1]    ***   
       AV_SCF               IAVSCF         OFF         [  0]    ***   
       BASIS                IBASIS         AUG-PCVTZ   [ 51]    ***   
       BOTHVECTORS          BOTHVC         OFF         [  0]    ***   
       BOX_POTENT           IPIAB          OFF         [  0]    ***   
       BREIT                IBREIT         OFF         [  0]    ***   
       BRUCK_CONV           IBRTOL          10D-  4             ***   
       BRUECKNER            IBRKNR         OFF         [  0]    ***   
       BUFFERSIZE           IBUFFS              4096            ***   
       CACHE_RECS           ICHREC             10               ***   
       CALCLEVEL            ICLLVL         CCSD        [ 10]    ***   
       CCORBOPT             ICCORB         OFF         [  0]  x 0.01  
       CC_CONV              ICCCNV          10D- 10             ***   
       CC_EXPORDER          ICCEOR              5               ***   
       CC_EXTRAPOL          ICCEXT         DIIS        [  1]    ***   
       CC_GUESS             ICCGES         MP2         [  0]    ***   
       CC_MAXCYC            ICCCYC            100              cycles 
       CC_PROGRAM           ICCPRO         VCC         [  0]    ***   
       CHARGE               ICHRGE              0               ***   
       CHOLESKY             ICHOLE         OFF         [  0]    ***   
       CIS_CONV             ICISTL              5               ***   
       COMM_SIZE            IPSIZE            ***               ***   
       CONSTANT             ICONST         OLD         [  1]    ***   
       CONTINUUM            ICONTU         NONE        [  0]    ***   
       CONTRACTION          ICNTYP         GENERAL     [  1]    ***   
       COORDINATES          ICOORD         INTERNAL    [  0]    ***   
       CPHF_CONVER          ICPHFT          10D- 16             ***   
       CPHF_MAXCYC          ICPHFC             64              cycles 
       CUBIC                ICUBIC         OFF         [  0]    ***   
       CURVILINEAR          ICURVY         ON          [  1]    ***   
       DBOC                 IDBOC          ON          [  1]    ***   
       DCT                  IDCT           OFF         [  0]    ***   
       DERIV_LEV            IDRLVL         SECOND      [  2]    ***   
       DEVMEM_SIZE          IDVMEM          50000000           MByte  
       DIAG_MRCC            IEOMST          10D-  0             ***   
       DIFF_TYPE            IDIFTY         RELAXED     [  0]    ***   
       DIRECT               IDIRCT         OFF         [  0]    ***   
       DROPMO               IDRPMO      NONE         
       ECP                  IECP           OFF         [  0]    ***   
       EIGENVECTOR          IVEC                1               ***   
       EL_ANHARM            IELANH         OFF         [  0]    ***   
       EOMFOLLOW            IEOMSR         ENERGY      [  0]    ***   
       EOMIP                IEOMIP         OFF         [  0]    ***   
       EOMLEVEL             HBARFM         SAME        [  0]    ***   
       EOM_MRCC             IMRCCE         NEW         [  1]    ***   
       EOM_NONIT            EOMNON         OFF         [  0]    ***   
       EOM_NSING            IEOMSI          10D-  0             ***   
       EOM_NSTATES          IMRCCD         DAVIDSON    [  0]    ***   
       EOM_NTRIP            IEOMTR          10D-  0             ***   
       EOM_ORDER            IEXORD         ENERGY      [  0]    ***   
       EOM_PROPSTA          IEOMST              0               ***   
       ESTATE_CONV          IEXTOL          10D-  5             ***   
       ESTATE_DIAG          IEXDIG         ITERATIVE   [  0]    ***   
       ESTATE_LOCK          IESLOC         ON          [  1]    ***   
       ESTATE_MAXC          IEXMXC             40               ***   
       ESTATE_PROP          IEXPRP         OFF         [  0]    ***   
       EVAL_HESS            IRECAL              0            # of cyc.
       EXCITATION           IEXCIT              0               ***   
       EXCITE               IEXCIT         NONE        [  0]    ***   
       EXTERN_POT           IEXPOT         OFF         [  0]    ***   
       FCGRADNEW            IFCGNW         OFF         [  0]    ***   
       FC_FIELD             IFINFC              0             x 10-6  
       FD_CALTYPE           IFDCAL         GRADONLY    [  0]    ***   
       FD_PROJECT           IFDPRJ         OFF         [  1]    ***   
       FD_STEPSIZE          IDISFD              0            10-4 bohr
       FD_USEGROUP          IFDGRP         FULL        [  0]    ***   
       FILE_RECSIZ          IFLREC              4096           words  
       FINITE_PERT          IFIPER              0             x 10-6  
       FIXGEOM              IFIXGM         OFF         [  0]    ***   
       FOCK                 IFOCK          AO          [  1]    ***   
       FREQ_ALGORI          IVIALG         STANDARD    [  0]    ***   
       FROZEN_CORE          IFROCO         OFF         [  0]    ***   
       GAMMA_ABCD           IGABCD         STORE       [  0]    ***   
       GAMMA_ABCI           IGABCI         STORE       [  0]    ***   
       GENBAS_1             IGNBS1              0               ***   
       GENBAS_2             IGNBS2              0               ***   
       GENBAS_3             IGNBS3              0               ***   
       GENBAS_4             IGNBS4              0               ***   
       GEO_CONV             ICONTL              5              H/bohr 
       GEO_MAXCYC           IOPTCY             50               ***   
       GEO_MAXSTEP          IMXSTP            300            millibohr
       GEO_METHOD           INR            SINGLE_POINT[  5]    ***   
       GIAO                 IGIAO          OFF         [  1]    ***   
       GIMIC                IGIMIC         OFF         [  0]    ***   
       GRID                 IGRID          OFF         [  0]    ***   
       GRID_ALGO            IGALGO         SERIAL      [  0]    ***   
       GUESS                IGUESS         MOREAD      [  0]    ***   
       HBAR                 IHBAR          OFF         [  0]    ***   
       HESS_TYPE            IHESTP         SCF         [  0]    ***   
       HF2_FILE             IHF2Fl         USE         [  1]    ***   
       HFSTABILITY          ISTABL         OFF         [  0]    ***   
       INCORE               INCORE         OFF         [  0]    ***   
       INPUT_MRCC           IMRCC          ON          [  1]    ***   
       INTEGRALS            INTTYP         VMOL        [  1]    ***   
       JODA_PRINT           IJPRNT              0               ***   
       KEYWORD_OUT          IDMPKW         NO          [  0]    ***   
       LINDEP_TOL           ILINDP              8               ***   
       LINEQ_CONV           IZTACN          10D-  7           cycles  
       LINEQ_EXPOR          ILMAXD              5               ***   
       LINEQ_MAXCY          ILMAXC            100               ***   
       LINEQ_TYPE           ILTYPE         DIIS        [  1]    ***   
       LOCK_ORBOCC          ILOCOC         OFF         [  0]    ***   
       MEMORY_SIZE          IMEMSZ         500000000           words  
       MEM_UNIT             IMEMU          INTEGERWORDS[  0]    ***   
       MRCC                 IMRCCC         OFF         [  0]    ***   
       MULTIPLICTY          IMULTP              1               ***   
       NACOUPLING           IVCOUP         OFF         [  0]    ***   
       NEGEVAL              IDIE           ABORT       [  0]    ***   
       NEWNORM              INEWNO         OFF         [  0]    ***   
       NON-HF               INONHF         OFF         [  0]    ***   
       NTOP_TAMP            ITOPT2             15               ***   
       NUC_MODEL            INUCMO         POINT       [  0]    ***   
       OCCUPATION           IOCCU   ESTIMATED BY SCF 
       OPEN-SHELL           IOPEN          SPIN-ORBITAL[  0]    ***   
       OPTVIB               IOPTVB         OFF         [  0]    ***   
       ORBITALS             IORBTP         STANDARD    [  0]    ***   
       PARALLEL             IPARAL         ON          [  1]    ***   
       PARA_INT             IPINTS         ON          [  1]    ***   
       PARA_PRINT           IPPRIN              0               ***   
       PERT_ORB             IPTORB         STANDARD    [  0]    ***   
       POINTS               IGRDFD              0               ***   
       PRINT                IPRNT               0               ***   
       PROPS                IPROPS         OFF         [  0]    ***   
       PROP_INTEGR          IINTYP         INTERNAL    [  0]    ***   
       PSI                  IPSI           OFF         [  0]    ***   
       QC_ALG               IQCALG         FLM         [  0]    ***   
       QC_LINALG            IQCLIN         TRIDIAG     [  2]    ***   
       QC_MAXCYC            IQCMAX          10D-100           cycles  
       QC_MAXSCFCY          IQCMSC          10D- 15           cycles  
       QC_RTRUST            IQCRTR          10D-  0           x 10-3  
       QC_SKIPSCF           IQCSKI         OFF         [  0]    ***   
       QC_START             IQCSTA          10D-  1             ***   
       QRHFGUESS            IQGUES         OFF         [  0]    ***   
       QUARTIC              IQUART         OFF         [  0]    ***   
       RAMAN_INT            IRAMIN         OFF         [  0]    ***   
       RAMAN_ORB            IRAMRE         UNRELAXED   [  0]    ***   
       RDO                  IRDOFM         ON          [  1]    ***   
       REDUCE_REPR          REDREP         Ir          [  0]    ***   
       REFERENCE            IREFNC         RHF         [  0]    ***   
       RELATIVIST           IRELAT         OFF         [  0]    ***   
       RELAX_DENS           IRDENS         ON          [  1]    ***   
       RESET_FLAGS          IRESET         OFF         [  0]    ***   
       RESTART_CC           ICCRES         OFF         [  0]    ***   
       ROT_EVEC             ROTVEC              0               ***   
       SAVE_INTS            ISVINT         OFF         [  0]    ***   
       SCALE_ON             ISTCRT              0               ***   
       SCF_CONV             ISCFCV          10D- 10             ***   
       SCF_DAMPING          IDAMP               0             x 10-3  
       SCF_EXPORDE          IRPPOR              6               ***   
       SCF_EXPSTAR          IRPPLS              8               ***   
       SCF_EXTRAPO          IRPP           ON          [  1]    ***   
       SCF_MAXCYC           ISCFCY            150              cycles 
       SCF_NOSTOP           ISCFST         OFF         [  0]    ***   
       SCF_PRINT            ISCFPR              0               ***   
       SCF_PROG             ISCFPR         SCF         [  0]    ***   
       SD_FIELD             IFINSD              0             x 10-6  
       SOPERT               IPERSO         OFF         [  0]    ***   
       SPHERICAL            IDFGHI         ON          [  1]    ***   
       SPINORBIT            ISOCAL         OFF         [  0]    ***   
       SPINROTATIO          ISRCON         OFF         [  0]    ***   
       SPIN_FLIP            ISPFLP         OFF         [  0]    ***   
       SPIN_ORBIT           ISPORB         OFF         [  0]    ***   
       SPIN_SCAL            ISCSMP         OFF         [  0]    ***   
       STEEPSCALE           ISTPSC              1000          x 10-3  
       SUBGROUP             ISUBGP         DEFAULT     [  0]    ***   
       SUBGRPAXIS           ISBXYZ         X           [  0]    ***   
       SYMMETRY             ISYM           ON          [  0]    ***   
       SYM_CHECK            ISYMCK         OVERRIDE    [  1]    ***   
       T3_EXTRAPOL          IT3EXT         OFF         [  0]    ***   
       T4_EXTRAPOL          IT4EXP         OFF         [  0]    ***   
       TAMP_SUM             IEVERY              5               ***   
       TESTSUITE            ITESTS         OFF         [  0]    ***   
       THERMOCH             ITHERM         OFF         [  0]    ***   
       TOL_CHOLESK          ITOLCH          10D-  4             ***   
       TRANGRAD             IRESRM         OFF         [  0]    ***   
       TRANS_INV            ITRAIN         IGNORE      [  1]    ***   
       TREAT_PERT           ITREAT         SIMULTANEOUS[  0]    ***   
       TRIP_ALGORI          ITRALG         NORMAL      [  0]    ***   
       UIJ_THRESHO          IUIJTH              1               ***   
       UNITS                IUNITS         ANGSTROM    [  0]    ***   
       UNOS                 IUNOS          OFF         [  0]    ***   
       UPDATE_HESS          IHUPDT         ON          [  1]    ***   
       VIBPHASE             ISETPH         STANDARD    [  0]    ***   
       VIBRATION            IVIB           ANALYTIC    [  1]    ***   
       VIB_ALGORIT          IGEALG         STANDARD    [  0]    ***   
       VNATORB              IVNORB         OFF         [  0]    ***   
       VTRAN                IVTRAN         FULL/PARTIAL[  0]    ***   
       XFIELD               IXEFLD              0             x 10-6  
       XFORM_TOL            IXFTOL          10D- 11             ***   
       YFIELD               IYEFLD              0             x 10-6  
       ZFIELD               IZEFLD              0             x 10-6  
       ZSCALE_EXP           IZEXPS         OFF         [  0]    ***   
    -------------------------------------------------------------------
   3 entries found in Z-matrix 
   Job Title : Hypochlorous acid DBOC calculation                                              
   There are  3 unique internal coordinates.
   Of these,  0 will be optimized.
   User supplied Z-matrix: 
--------------------------------------------------------------------------------
       SYMBOL    BOND      LENGTH    ANGLE     ANGLE     DIHED     ANGLE
                  TO      (ANGST)    WRT      (DEG)      WRT      (DEG)
--------------------------------------------------------------------------------
        O    
        H          1         ROH  
        CL         1         ROCL       2        A    
                  *Initial values for internal coordinates* 
                      Name             Value
                        ROH             0.9600000000
                        ROCL            1.6830000000
                        A             107.0000000000
--------------------------------------------------------------------------------
  read isotopes from ZMAT file 
   Rotational constants (in cm-1): 
          0.4879063352             0.4991833392            21.5974664373
   Rotational constants (in MHz): 
      14627.0660005403         14965.1421202244        647475.8456897598
********************************************************************************
   The full molecular point group is C s .
   The largest Abelian subgroup of the full molecular point group is C s .
   The computational point group is C s .
********************************************************************************
--------------------------------------------------------------------------------
   Analysis of internal coordinates specified by Z-matrix 
--------------------------------------------------------------------------------
   *The nuclear repulsion energy is   51.321654307898186 a.u.
   *There are   3 degrees of freedom within the tot. symm. molecular subspace.
   *Z-matrix requests optimization of   0 coordinates.
   *The optimization is constrained.
   *The following   3 parameters can have non-zero 
    derivatives within the totally symmetric subspace:
             A    [ 3]  ROH  [ 1]  ROCL [ 2]
   *The following   0 parameters are to be optimized:

   *The following coordinates must be varied in an  unconstrained optimization.
             A    [ 3]  ROH  [ 1]  ROCL [ 2]
--------------------------------------------------------------------------------


 ----------------------------------------------------------------
         Coordinates used in calculation (QCOMP) 
 ----------------------------------------------------------------
 Z-matrix   Atomic            Coordinates (in bohr)
  Symbol    Number           X              Y              Z
 ----------------------------------------------------------------
     O         8        -2.16547966     0.11930274     0.00000000
     H         1        -2.76500291    -1.59290828     0.00000000
     CL       17         1.01237353    -0.00819307     0.00000000
 ----------------------------------------------------------------
 
   Interatomic distance matrix (Angstroms) 
 
                 O             H             CL   
                [ 1]        [ 2]        [ 3]
  O    [ 1]     0.00000
  H    [ 2]     0.96000     0.00000
  CL   [ 3]     1.68300     2.16768     0.00000
 rotcon2
   Rotational constants (in cm-1): 
         21.5974664373             0.4991833392             0.4879063352
   Rotational constants (in MHz): 
     647475.8456897608         14965.1421202244         14627.0660005403
  ECPDATA file not present.   Using default ECPDATA. 
  @GTFLGS-I, Hessian will be transformed to curvilinear coordinates.
  There are  157 basis functions.
 @CHECKOUT-I, Total execution time (CPU/WALL):        0.25/       0.32 seconds.
--executable xjoda finished with status     0 in        0.39 seconds (walltime).
 --invoking executable--
/home/asmola/.local/bin/xvmol
 SERIAL VERSION OF MOLECULE STARTED
********************************************************************************
                    INPUT FROM MOL FILE
********************************************************************************
INTGRL        1    0    1    0    0    0    0    0    0                         
         *** CFOUR Program System (Release V0.1) ***                            
Hypochlorous acid DBOC calculation                                              
    3    1 Z          0.10E-08              0    0                              
   9999.00      3.00                                                            
          8.00000000    1    4    1    1    1    1                              
O #1  -2.165479657382964   0.119302741652193   0.000000000000000                
   13    7                                                                      
   15330.0000000000       5.080000000000000E-004 -1.150000000000000E-004        
  0.000000000000000E+000  0.000000000000000E+000  0.000000000000000E+000        
  0.000000000000000E+000  0.000000000000000E+000                                
   2299.00000000000       3.929000000000000E-003 -8.950000000000000E-004        
  0.000000000000000E+000  0.000000000000000E+000  0.000000000000000E+000        
  0.000000000000000E+000  0.000000000000000E+000                                
   522.400000000000       2.024300000000000E-002 -4.636000000000000E-003        
  0.000000000000000E+000  0.000000000000000E+000  0.000000000000000E+000        
  0.000000000000000E+000  0.000000000000000E+000                                
   147.300000000000       7.918100000000000E-002 -1.872400000000000E-002        
  0.000000000000000E+000  0.000000000000000E+000  0.000000000000000E+000        
  0.000000000000000E+000  0.000000000000000E+000                                
   47.5500000000000       0.230687000000000      -5.846300000000000E-002        
  0.000000000000000E+000  0.000000000000000E+000  0.000000000000000E+000        
  0.000000000000000E+000  0.000000000000000E+000                                
   16.7600000000000       0.433118000000000      -0.136463000000000             
  0.000000000000000E+000  0.000000000000000E+000  0.000000000000000E+000        
  0.000000000000000E+000  0.000000000000000E+000                                
   6.20700000000000       0.350260000000000      -0.175740000000000             
  0.000000000000000E+000  0.000000000000000E+000  0.000000000000000E+000        
  0.000000000000000E+000  0.000000000000000E+000                                
   1.75200000000000       4.272800000000000E-002  0.160934000000000             
   1.00000000000000       0.000000000000000E+000  0.000000000000000E+000        
  0.000000000000000E+000  0.000000000000000E+000                                
  0.688200000000000      -8.154000000000000E-003  0.603418000000000             
  0.000000000000000E+000  0.000000000000000E+000  0.000000000000000E+000        
  0.000000000000000E+000  0.000000000000000E+000                                
  0.238400000000000       2.381000000000000E-003  0.378765000000000             
  0.000000000000000E+000   1.00000000000000       0.000000000000000E+000        
  0.000000000000000E+000  0.000000000000000E+000                                
   7.84500000000000       0.000000000000000E+000  0.000000000000000E+000        
  0.000000000000000E+000  0.000000000000000E+000   1.00000000000000             
  0.000000000000000E+000  0.000000000000000E+000                                
   21.0320000000000       0.000000000000000E+000  0.000000000000000E+000        
  0.000000000000000E+000  0.000000000000000E+000  0.000000000000000E+000        
   1.00000000000000       0.000000000000000E+000                                
  7.376000000000001E-002  0.000000000000000E+000  0.000000000000000E+000        
  0.000000000000000E+000  0.000000000000000E+000  0.000000000000000E+000        
  0.000000000000000E+000   1.00000000000000                                     
    8    6                                                                      
   34.4600000000000       1.592800000000000E-002  0.000000000000000E+000        
  0.000000000000000E+000  0.000000000000000E+000  0.000000000000000E+000        
  0.000000000000000E+000                                                        
   7.74900000000000       9.974000000000000E-002  0.000000000000000E+000        
  0.000000000000000E+000  0.000000000000000E+000  0.000000000000000E+000        
  0.000000000000000E+000                                                        
   2.28000000000000       0.310492000000000       0.000000000000000E+000        
  0.000000000000000E+000  0.000000000000000E+000  0.000000000000000E+000        
  0.000000000000000E+000                                                        
  0.715600000000000       0.491026000000000        1.00000000000000             
  0.000000000000000E+000  0.000000000000000E+000  0.000000000000000E+000        
  0.000000000000000E+000                                                        
  0.214000000000000       0.336337000000000       0.000000000000000E+000        
   1.00000000000000       0.000000000000000E+000  0.000000000000000E+000        
  0.000000000000000E+000                                                        
   15.1590000000000       0.000000000000000E+000  0.000000000000000E+000        
  0.000000000000000E+000   1.00000000000000       0.000000000000000E+000        
  0.000000000000000E+000                                                        
   57.4370000000000       0.000000000000000E+000  0.000000000000000E+000        
  0.000000000000000E+000  0.000000000000000E+000   1.00000000000000             
  0.000000000000000E+000                                                        
  5.974000000000000E-002  0.000000000000000E+000  0.000000000000000E+000        
  0.000000000000000E+000  0.000000000000000E+000  0.000000000000000E+000        
   1.00000000000000                                                             
    4    4                                                                      
   2.31400000000000        1.00000000000000       0.000000000000000E+000        
  0.000000000000000E+000  0.000000000000000E+000                                
  0.645000000000000       0.000000000000000E+000   1.00000000000000             
  0.000000000000000E+000  0.000000000000000E+000                                
   15.8580000000000       0.000000000000000E+000  0.000000000000000E+000        
   1.00000000000000       0.000000000000000E+000                                
  0.214000000000000       0.000000000000000E+000  0.000000000000000E+000        
  0.000000000000000E+000   1.00000000000000                                     
    2    2                                                                      
   1.42800000000000        1.00000000000000       0.000000000000000E+000        
  0.500000000000000       0.000000000000000E+000   1.00000000000000             
          1.00000000    1    3    1    1    1                                   
H #2  -2.765002913250164  -1.592908281812078   0.000000000000000                
    6    4                                                                      
   33.8700000000000       6.068000000000000E-003  0.000000000000000E+000        
  0.000000000000000E+000  0.000000000000000E+000                                
   5.09500000000000       4.530800000000000E-002  0.000000000000000E+000        
  0.000000000000000E+000  0.000000000000000E+000                                
   1.15900000000000       0.202822000000000       0.000000000000000E+000        
  0.000000000000000E+000  0.000000000000000E+000                                
  0.325800000000000       0.503903000000000        1.00000000000000             
  0.000000000000000E+000  0.000000000000000E+000                                
  0.102700000000000       0.383421000000000       0.000000000000000E+000        
   1.00000000000000       0.000000000000000E+000                                
  2.526000000000000E-002  0.000000000000000E+000  0.000000000000000E+000        
  0.000000000000000E+000   1.00000000000000                                     
    3    3                                                                      
   1.40700000000000        1.00000000000000       0.000000000000000E+000        
  0.000000000000000E+000                                                        
  0.388000000000000       0.000000000000000E+000   1.00000000000000             
  0.000000000000000E+000                                                        
  0.102000000000000       0.000000000000000E+000  0.000000000000000E+000        
   1.00000000000000                                                             
    2    2                                                                      
   1.05700000000000        1.00000000000000       0.000000000000000E+000        
  0.247000000000000       0.000000000000000E+000   1.00000000000000             
         17.00000000    1    4    1    1    1    1                              
CL#3   1.012373532316133  -0.008193072575451   0.000000000000000                
   18    8                                                                      
   456100.000000000       4.930000000000000E-005 -1.380000000000000E-005        
  4.200000000000000E-006  0.000000000000000E+000  0.000000000000000E+000        
  0.000000000000000E+000  0.000000000000000E+000  0.000000000000000E+000        
   68330.0000000000       3.830000000000000E-004 -1.073000000000000E-004        
  3.240000000000000E-005  0.000000000000000E+000  0.000000000000000E+000        
  0.000000000000000E+000  0.000000000000000E+000  0.000000000000000E+000        
   15550.0000000000       2.008500000000000E-003 -5.651000000000000E-004        
  1.711000000000000E-004  0.000000000000000E+000  0.000000000000000E+000        
  0.000000000000000E+000  0.000000000000000E+000  0.000000000000000E+000        
   4405.00000000000       8.385600000000000E-003 -2.361400000000000E-003        
  7.142000000000000E-004  0.000000000000000E+000  0.000000000000000E+000        
  0.000000000000000E+000  0.000000000000000E+000  0.000000000000000E+000        
   1439.00000000000       2.947030000000000E-002 -8.458900000000000E-003        
  2.567000000000000E-003  0.000000000000000E+000  0.000000000000000E+000        
  0.000000000000000E+000  0.000000000000000E+000  0.000000000000000E+000        
   520.400000000000       8.783249999999999E-002 -2.596380000000000E-002        
  7.885500000000000E-003  0.000000000000000E+000  0.000000000000000E+000        
  0.000000000000000E+000  0.000000000000000E+000  0.000000000000000E+000        
   203.100000000000       0.211473000000000      -6.863619999999999E-002        
  2.108670000000000E-002  0.000000000000000E+000  0.000000000000000E+000        
  0.000000000000000E+000  0.000000000000000E+000  0.000000000000000E+000        
   83.9600000000000       0.365364000000000      -0.141874000000000             
  4.422640000000000E-002  0.000000000000000E+000  0.000000000000000E+000        
  0.000000000000000E+000  0.000000000000000E+000  0.000000000000000E+000        
   36.2000000000000       0.340884000000000      -0.199319000000000             
  6.516700000000000E-002  0.000000000000000E+000  0.000000000000000E+000        
  0.000000000000000E+000  0.000000000000000E+000  0.000000000000000E+000        
   15.8300000000000       0.102133000000000      -1.956620000000000E-002        
  6.030100000000000E-003  0.000000000000000E+000  0.000000000000000E+000        
  0.000000000000000E+000  0.000000000000000E+000  0.000000000000000E+000        
   6.33400000000000       3.116800000000000E-003  0.499741000000000             
 -0.206495000000000       0.000000000000000E+000  0.000000000000000E+000        
  0.000000000000000E+000  0.000000000000000E+000  0.000000000000000E+000        
   2.69400000000000       1.057500000000000E-003  0.563736000000000             
 -0.405871000000000       0.000000000000000E+000  0.000000000000000E+000        
  0.000000000000000E+000  0.000000000000000E+000  0.000000000000000E+000        
  0.976800000000000      -3.780000000000000E-004  7.903250000000001E-002        
  7.595580000000000E-002   1.00000000000000       0.000000000000000E+000        
  0.000000000000000E+000  0.000000000000000E+000  0.000000000000000E+000        
  0.431300000000000       1.561000000000000E-004 -8.350900000000000E-003        
  0.725661000000000       0.000000000000000E+000  0.000000000000000E+000        
  0.000000000000000E+000  0.000000000000000E+000  0.000000000000000E+000        
  0.162500000000000      -5.140000000000000E-005  2.324600000000000E-003        
  0.394423000000000       0.000000000000000E+000   1.00000000000000             
  0.000000000000000E+000  0.000000000000000E+000  0.000000000000000E+000        
   15.0640000000000       0.000000000000000E+000  0.000000000000000E+000        
  0.000000000000000E+000  0.000000000000000E+000  0.000000000000000E+000        
   1.00000000000000       0.000000000000000E+000  0.000000000000000E+000        
   2.87400000000000       0.000000000000000E+000  0.000000000000000E+000        
  0.000000000000000E+000  0.000000000000000E+000  0.000000000000000E+000        
  0.000000000000000E+000   1.00000000000000       0.000000000000000E+000        
  5.910000000000000E-002  0.000000000000000E+000  0.000000000000000E+000        
  0.000000000000000E+000  0.000000000000000E+000  0.000000000000000E+000        
  0.000000000000000E+000  0.000000000000000E+000   1.00000000000000             
   12    7                                                                      
   663.300000000000       2.404500000000000E-003 -6.521000000000000E-004        
  0.000000000000000E+000  0.000000000000000E+000  0.000000000000000E+000        
  0.000000000000000E+000  0.000000000000000E+000                                
   156.800000000000       1.921480000000000E-002 -5.194500000000000E-003        
  0.000000000000000E+000  0.000000000000000E+000  0.000000000000000E+000        
  0.000000000000000E+000  0.000000000000000E+000                                
   49.9800000000000       8.850970000000000E-002 -2.469380000000000E-002        
  0.000000000000000E+000  0.000000000000000E+000  0.000000000000000E+000        
  0.000000000000000E+000  0.000000000000000E+000                                
   18.4200000000000       0.256020000000000      -7.281670000000000E-002        
  0.000000000000000E+000  0.000000000000000E+000  0.000000000000000E+000        
  0.000000000000000E+000  0.000000000000000E+000                                
   7.24000000000000       0.436927000000000      -0.134030000000000             
  0.000000000000000E+000  0.000000000000000E+000  0.000000000000000E+000        
  0.000000000000000E+000  0.000000000000000E+000                                
   2.92200000000000       0.350334000000000      -9.477420000000000E-002        
  0.000000000000000E+000  0.000000000000000E+000  0.000000000000000E+000        
  0.000000000000000E+000  0.000000000000000E+000                                
   1.02200000000000       5.854950000000000E-002  0.262289000000000             
   1.00000000000000       0.000000000000000E+000  0.000000000000000E+000        
  0.000000000000000E+000  0.000000000000000E+000                                
  0.381800000000000      -4.584200000000000E-003  0.564667000000000             
  0.000000000000000E+000  0.000000000000000E+000  0.000000000000000E+000        
  0.000000000000000E+000  0.000000000000000E+000                                
  0.130100000000000       2.269700000000000E-003  0.341250000000000             
  0.000000000000000E+000   1.00000000000000       0.000000000000000E+000        
  0.000000000000000E+000  0.000000000000000E+000                                
   9.48000000000000       0.000000000000000E+000  0.000000000000000E+000        
  0.000000000000000E+000  0.000000000000000E+000   1.00000000000000             
  0.000000000000000E+000  0.000000000000000E+000                                
   3.66800000000000       0.000000000000000E+000  0.000000000000000E+000        
  0.000000000000000E+000  0.000000000000000E+000  0.000000000000000E+000        
   1.00000000000000       0.000000000000000E+000                                
  4.190000000000000E-002  0.000000000000000E+000  0.000000000000000E+000        
  0.000000000000000E+000  0.000000000000000E+000  0.000000000000000E+000        
  0.000000000000000E+000   1.00000000000000                                     
    5    5                                                                      
   1.04600000000000        1.00000000000000       0.000000000000000E+000        
  0.000000000000000E+000  0.000000000000000E+000  0.000000000000000E+000        
  0.344000000000000       0.000000000000000E+000   1.00000000000000             
  0.000000000000000E+000  0.000000000000000E+000  0.000000000000000E+000        
   17.9570000000000       0.000000000000000E+000  0.000000000000000E+000        
   1.00000000000000       0.000000000000000E+000  0.000000000000000E+000        
   5.76000000000000       0.000000000000000E+000  0.000000000000000E+000        
  0.000000000000000E+000   1.00000000000000       0.000000000000000E+000        
  0.135000000000000       0.000000000000000E+000  0.000000000000000E+000        
  0.000000000000000E+000  0.000000000000000E+000   1.00000000000000             
    3    3                                                                      
  0.706000000000000        1.00000000000000       0.000000000000000E+000        
  0.000000000000000E+000                                                        
   11.7790000000000       0.000000000000000E+000   1.00000000000000             
  0.000000000000000E+000                                                        
  0.312000000000000       0.000000000000000E+000  0.000000000000000E+000        
   1.00000000000000                                                             
FINISH                                                                          
 
********************************************************************************
 ONE- AND TWO-ELECTRON INTEGRALS OVER SYMMETRY-ADAPTED AOS ARE CALCULATED.

  SPHERICAL HARMONICS ARE USED.
  
  INTEGRALS LESS THAN  0.10E-13 ARE NEGLECTED.

  NUCLEAR REPULSION ENERGY :   51.3216543079 A.U.
  @MOLECU-I, ONE ELECTRON INTEGRALS (CPU/WALL):        0.04/       0.04 SECONDS.
  @TWOEL-I,   14245223 INTEGRALS OF SYMMETRY TYPE  I I I I
  @TWOEL-I,   13483677 INTEGRALS OF SYMMETRY TYPE  I J I J
  @TWOEL-I,    6953712 INTEGRALS OF SYMMETRY TYPE  I I J J
  @TWOEL-I, TOTAL NUMBER OF 2-E INTEGRALS   34682612.
  @MOLECU-I, TWO ELECTRON INTEGRALS (CPU/WALL):       67.87/      10.55 SECONDS.
 @CHECKOUT-I, Total execution time (CPU/WALL):       67.93/      10.63 seconds.

Running with 14 threads/proc

--executable xvmol finished with status     0 in       10.68 seconds (walltime).
 --invoking executable--
/home/asmola/.local/bin/xvmol2ja
 @GETMEM-I,  Allocated    3814 MB of main memory.
 @CHECKOUT-I, Total execution time (CPU/WALL):        0.13/       0.03 seconds.
--executable xvmol2ja finished with status     0 in        0.07 seconds (walltime).
 --invoking executable--
/home/asmola/.local/bin/xvscf
  There are  157 functions in the AO basis.

  There are 2 irreducible representations.

       Irrep        # of functions
         1                104
         2                 53


  Parameters for SCF calculation: 
        SCF reference function:  RHF  
  Maximum number of iterations:  150
     Full symmetry point group: C s 
     Computational point group: C s 
        Initial density matrix: MOREAD                 
     SCF convergence tolerance: 10**(-10)
  DIIS convergence acceleration:  ON
          Latest start for DIIS:   8
                     DIIS order:   6

  Memory information:    1209746 words required.
  Fock matrices are constructed from AO integral file.
 @GETMEM-I,  Allocated       9 MB of main memory.
  Initialization and symmetry analysis required      0.001 seconds.

  @INITGES-I, Occupancies from core Hamiltonian:

          Alpha population by irrep:  10    3
           Beta population by irrep:  10    3


 total no. of electrons in initial guess :  0.000000000000000E+000
  --------------------------------------------------------------------
  Iteration         Total Energy            Largest Density Difference
  --------------------------------------------------------------------
       0            51.321654307898172              0.0000000000D+00
   current occupation vector 
    10  3
    10  3
       1          -365.190605588746394              0.1325960285D+02
   current occupation vector 
    10  3
    10  3
       2          -338.601946005233231              0.1324521208D+02
   current occupation vector 
    10  3
    10  3
       3          -421.061106876978329              0.1074575037D+02
   current occupation vector 
    10  3
    10  3
       4          -336.486251197140859              0.1074846615D+02
   current occupation vector 
    10  3
    10  3
       5          -420.836337015399749              0.1069014381D+02
   current occupation vector 
    10  3
    10  3
       6          -336.391835004953919              0.1068994564D+02
   current occupation vector 
    10  3
    10  3
       7          -420.818599558768710              0.1068543281D+02
   current occupation vector 
    10  3
    10  3
       8          -336.384797654903991              0.1068541376D+02
   current occupation vector 
    10  3
    10  3
       9          -446.386733845091499              0.8211619891D+01
   current occupation vector 
    10  3
    10  3
      10          -466.246065991021737              0.2184735175D+01
   current occupation vector 
    10  3
    10  3
      11          -474.790512269816759              0.1067283708D+01
   current occupation vector 
    10  3
    10  3
      12          -476.834908717977328              0.2801125572D+00
   current occupation vector 
    10  3
    10  3
      13          -477.843775362847055              0.1350734707D+00
   current occupation vector 
    10  3
    10  3
      14          -483.013751924126495              0.6915722193D+00
   current occupation vector 
    10  3
    10  3
      15          -506.050514418663624              0.7594490370D+01
   current occupation vector 
    10  3
    10  3
      16          -521.343666632748523              0.7593933853D+01
   current occupation vector 
    11  2
    11  2
      17          -526.170928241061233              0.4403173433D+01
   current occupation vector 
    11  2
    11  2
      18          -533.579195236717510              0.3133361019D+01
   current occupation vector 
    10  3
    10  3
      19          -534.690202973844293              0.8210565263D+00
   current occupation vector 
    10  3
    10  3
      20          -534.908073211296141              0.3397786818D+00
   current occupation vector 
    10  3
    10  3
      21          -534.922007035609909              0.1569148423D+00
   current occupation vector 
    10  3
    10  3
      22          -534.924036891268315              0.4441732930D-01
   current occupation vector 
    10  3
    10  3
      23          -534.924527315192336              0.3070732814D-01
   current occupation vector 
    10  3
    10  3
      24          -534.924574960895825              0.9061513696D-02
   current occupation vector 
    10  3
    10  3
      25          -534.924584422665816              0.4330172943D-02
   current occupation vector 
    10  3
    10  3
      26          -534.924585249113989              0.1018696036D-02
   current occupation vector 
    10  3
    10  3
      27          -534.924585358899208              0.4482626305D-03
   current occupation vector 
    10  3
    10  3
      28          -534.924585382150894              0.2826577785D-03
   current occupation vector 
    10  3
    10  3
      29          -534.924585382774239              0.4414159035D-04
   current occupation vector 
    10  3
    10  3
      30          -534.924585382818805              0.1047841360D-04
   current occupation vector 
    10  3
    10  3
      31          -534.924585382816076              0.2023755932D-05
   current occupation vector 
    10  3
    10  3
      32          -534.924585382815508              0.7121017057D-06
   current occupation vector 
    10  3
    10  3
      33          -534.924585382814371              0.2555098613D-06
   current occupation vector 
    10  3
    10  3
      34          -534.924585382813234              0.9309434512D-07
   current occupation vector 
    10  3
    10  3
      35          -534.924585382809823              0.5244156798D-07
   current occupation vector 
    10  3
    10  3
      36          -534.924585382817554              0.2815568183D-07
   current occupation vector 
    10  3
    10  3
      37          -534.924585382815280              0.1527079943D-07
   current occupation vector 
    10  3
    10  3
      38          -534.924585382820396              0.5942705272D-08
   current occupation vector 
    10  3
    10  3
      39          -534.924585382819146              0.1262618468D-08
   current occupation vector 
    10  3
    10  3
      40          -534.924585382817327              0.5797414770D-09
   current occupation vector 
    10  3
    10  3
      41          -534.924585382818464              0.2477786726D-09
   current occupation vector 
    10  3
    10  3

  SCF has converged.

 Density matrix saved to file den.dat
 total electron number:   26.0000000000002     
     E(SCF)=      -534.924585382816417              0.5090121380D-10

  Eigenvector printing suppressed.

 @PUTMOS-I, Writing converged MOs to NEWMOS. 
 @PUTMOS-I, Symmetry   1 Full Blocks 26 Partial Blocksize   0
 @PUTMOS-I, Symmetry   2 Full Blocks 13 Partial Blocksize   1
 @PUTFOCK-I, Writing converged Fock matrix to NEWFOCK. 
 @PUTFOCK-I, Symmetry   1 Full Blocks 26 Partial Blocksize   0
 @PUTFOCK-I, Symmetry   2 Full Blocks 13 Partial Blocksize   1


 
  ORBITAL EIGENVALUES (ALPHA)  (1H = 27.2113834 eV)

       MO #        E(hartree)               E(eV)           FULLSYM    COMPSYM
       ----   --------------------   --------------------   -------   ---------
    1     1        -104.8916459155       -2854.2467924637     A'        A'  (1)
    2     2         -20.6399628477        -561.6419424092     A'        A'  (1)
    3     3         -10.6115171366        -288.7540612597     A'        A'  (1)
    4     4          -8.0782450680        -219.8202237455     A'        A'  (1)
    5     5          -8.0758966598        -219.7563203079     A'        A'  (1)
    6   105          -8.0757461763        -219.7522254450     A''       A'' (2)
    7     6          -1.4140857248         -38.4792288174     A'        A'  (1)
    8     7          -1.0633935311         -28.9364090808     A'        A'  (1)
    9     8          -0.7239424414         -19.6994753318     A'        A'  (1)
   10   106          -0.6141973916         -16.7131607050     A''       A'' (2)
   11     9          -0.6051759846         -16.4676757424     A'        A'  (1)
   12    10          -0.4675482132         -12.7226336884     A'        A'  (1)
   13   107          -0.4432604873         -12.0617310673     A''       A'' (2)
  +++++++++++++++++++++++++++++++++++++++++++++++++++++++++++++++++++++++++++++
   14    11           0.0284666333           0.7746164724     A'        A'  (1)
   15    12           0.0624638289           1.6997271968     A'        A'  (1)
   16    13           0.1099966033           2.9931597442     A'        A'  (1)
   17   108           0.1159254974           3.1544931551     A''       A'' (2)
   18    14           0.1405631573           3.8249179659     A'        A'  (1)
   19    15           0.1579573413           4.2982377753     A'        A'  (1)
   20    16           0.1726691417           4.6985662158     A'        A'  (1)
   21    17           0.1776508979           4.8341266932     A'        A'  (1)
   22   109           0.1880671891           5.1175683864     A''       A'' (2)
   23    18           0.2443991433           6.6504387898     A'        A'  (1)
   24   110           0.2595960486           7.0639676065     A''       A'' (2)
   25    19           0.3071359436           8.3575939175     A'        A'  (1)
   26    20           0.3215016155           8.7485037226     A'        A'  (1)
   27   111           0.3836507486          10.4396676122     A''       A'' (2)
   28    21           0.3917341370          10.6596277918     A'        A'  (1)
   29   112           0.4200719099          11.4307377960     A''       A'' (2)
   30    22           0.4236867826          11.5291034825     A'        A'  (1)
   31    23           0.4460142552          12.1366649007     A'        A'  (1)
   32    24           0.5016153162          13.6496466875     A'        A'  (1)
   33    25           0.6079085965          16.5420338904     A'        A'  (1)
   34   113           0.6126100970          16.6699682254     A''       A'' (2)
   35    26           0.6797522590          18.4969993371     A'        A'  (1)
   36    27           0.7034908877          19.1429602646     A'        A'  (1)
   37   114           0.7122924241          19.3824622462     A''       A'' (2)
   38    28           0.7195548141          19.5800819236     A'        A'  (1)
   39   115           0.7680655624          20.9001264944     A''       A'' (2)
   40    29           0.7780788481          21.1726018506     A'        A'  (1)
   41    30           0.8715791117          23.7168733732     A'        A'  (1)
   42   116           0.8845156678          24.0688949587     A''       A'' (2)
   43    31           0.8866955116          24.1282115257     A'        A'  (1)
   44   117           0.9029110785          24.5694595319     A''       A'' (2)
   45    32           0.9145682169          24.8866663963     A'        A'  (1)
   46   118           0.9188273421          25.0025630846     A''       A'' (2)
   47    33           0.9297342572          25.2993553325     A'        A'  (1)
   48    34           0.9606669217          26.1410759274     A'        A'  (1)
   49    35           0.9989128028          27.1817992593     A'        A'  (1)
   50   119           1.0082695997          27.4364106473     A''       A'' (2)
   51    36           1.0162037886          27.6523109053     A'        A'  (1)
   52    37           1.1173001996          30.4032841045     A'        A'  (1)
   53   120           1.1264702100          30.6528127718     A''       A'' (2)
   54   121           1.2215937841          33.2412568190     A''       A'' (2)
   55    38           1.2338639194          33.5751441736     A'        A'  (1)
   56    39           1.2755963560          34.7107415056     A'        A'  (1)
   57    40           1.3409113668          36.4880533087     A'        A'  (1)
   58    41           1.3839222415          37.6584387103     A'        A'  (1)
   59   122           1.4099351475          38.3662858691     A''       A'' (2)
   60   123           1.5105524106          41.1042207894     A''       A'' (2)
   61   124           1.5451477208          42.0456070407     A''       A'' (2)
   62    42           1.5710141042          42.7494671166     A'        A'  (1)
   63    43           1.6709903199          45.4699582527     A'        A'  (1)
   64    44           1.7107630188          46.5522284121     A'        A'  (1)
   65    45           1.8177914842          49.4646210183     A'        A'  (1)
   66    46           1.9896535325          54.1412251072     A'        A'  (1)
   67   125           2.1739502655          59.1561941679     A''       A'' (2)
   68    47           2.2375404004          60.8865697092     A'        A'  (1)
   69   126           2.2547710569          61.3554397096     A''       A'' (2)
   70    48           2.2969315105          62.5026839757     A'        A'  (1)
   71    49           2.3200272656          63.1311514224     A'        A'  (1)
   72   127           2.3250489622          63.2677987331     A''       A'' (2)
   73    50           2.3708714346          64.5146915991     A'        A'  (1)
   74    51           2.4185946457          65.8133061929     A'        A'  (1)
   75   128           2.4531032503          66.7523330624     A''       A'' (2)
   76    52           2.4601638725          66.9444623617     A'        A'  (1)
   77   129           2.4768986068          67.3998376313     A''       A'' (2)
   78   130           2.4886979663          67.7209145288     A''       A'' (2)
   79    53           2.5017181607          68.0752120295     A'        A'  (1)
   80    54           2.5217111286          68.6192483450     A'        A'  (1)
   81   131           2.7431424331          74.6447004676     A''       A'' (2)
   82    55           2.7831495816          75.7333503232     A'        A'  (1)
   83   132           2.8950850100          78.7792681835     A''       A'' (2)
   84    56           2.9424086581          80.0670101162     A'        A'  (1)
   85    57           2.9697677482          80.8114888064     A'        A'  (1)
   86   133           3.0559409330          83.1563803752     A''       A'' (2)
   87    58           3.0682216836          83.4905565880     A'        A'  (1)
   88    59           3.1268245145          85.0852206888     A'        A'  (1)
   89   134           3.1331035513          85.2560819669     A''       A'' (2)
   90    60           3.2648165883          88.8401759140     A'        A'  (1)
   91    61           3.3194979163          90.3281304967     A'        A'  (1)
   92   135           3.3674023996          91.6316777586     A''       A'' (2)
   93    62           3.4735045219          94.5188632877     A'        A'  (1)
   94    63           3.7438401091         101.8750685983     A'        A'  (1)
   95    64           3.8339850315         104.3280366432     A'        A'  (1)
   96   136           4.0916834283         111.3403665196     A''       A'' (2)
   97   137           4.1370000365         112.5734941189     A''       A'' (2)
   98   138           4.3467317828         118.2805850796     A''       A'' (2)
   99    65           4.3580466335         118.5884778203     A'        A'  (1)
  100    66           4.5631532188         124.1697117495     A'        A'  (1)
  101    67           4.6971665380         127.8163995588     A'        A'  (1)
  102    68           4.8600533840         132.2487759763     A'        A'  (1)
  103    69           5.1131974359         139.1371758294     A'        A'  (1)
  104   139           5.2711893533         143.4363544661     A''       A'' (2)
  105    70           5.5014398461         149.7017889034     A'        A'  (1)
  106    71           5.8174298312         158.3003135391     A'        A'  (1)
  107    72           6.2947777166         171.2896098651     A'        A'  (1)
  108   140           6.6464726229         180.8597147994     A''       A'' (2)
  109    73           6.6956419957         182.1976814552     A'        A'  (1)
  110   141           6.7396239132         183.3944902748     A''       A'' (2)
  111    74           6.7842975095         184.6101206297     A'        A'  (1)
  112   142           7.1360026598         194.1805043183     A''       A'' (2)
  113   143           7.1930359365         195.7324586769     A''       A'' (2)
  114    75           7.2188305129         196.4343647865     A'        A'  (1)
  115    76           7.2507274553         197.3023247144     A'        A'  (1)
  116   144           7.2631251712         197.6396837170     A''       A'' (2)
  117    77           7.5978220439         206.7472486423     A'        A'  (1)
  118    78           7.8199995424         212.7930057372     A'        A'  (1)
  119    79           8.7878863450         239.1305446099     A'        A'  (1)
  120   145          10.3489923342         281.6103982084     A''       A'' (2)
  121    80          10.3492185062         281.6165526612     A'        A'  (1)
  122   146          10.3869814210         282.6441338167     A''       A'' (2)
  123    81          10.4419495122         284.1398916190     A'        A'  (1)
  124    82          10.6264917073         289.1615400432     A'        A'  (1)
  125   147          12.6791050281         345.0159880886     A''       A'' (2)
  126    83          12.7338752127         346.5063605815     A'        A'  (1)
  127    84          13.2274401914         359.9369464483     A'        A'  (1)
  128    85          18.2748887715         497.2850049535     A'        A'  (1)
  129   148          26.2001454191         712.9422021352     A''       A'' (2)
  130    86          26.6221312499         724.4250203648     A'        A'  (1)
  131    87          27.2253902279         740.8405317057     A'        A'  (1)
  132    88          29.1441276186         793.0520304888     A'        A'  (1)
  133   149          36.8944223802        1003.9482727104     A''       A'' (2)
  134    89          36.8948581822        1003.9601314853    E          A'  (1)
  135   150          36.8948590432        1003.9601549122    E          A'' (2)
  136    90          36.8994017669        1004.0837687102     A'        A'  (1)
  137   151          36.9035825255        1004.1975329356     A''       A'' (2)
  138    91          36.9037878706        1004.2031206602     A'        A'  (1)
  139    92          36.9077097974        1004.3098417122     A'        A'  (1)
  140   152          43.9159275501        1195.0131419315     A''       A'' (2)
  141    93          43.9436424785        1195.7673034760     A'        A'  (1)
  142   153          43.9642516979        1196.3281088459     A''       A'' (2)
  143    94          44.1070143704        1200.2128786622     A'        A'  (1)
  144    95          44.2527444469        1204.1783956455     A'        A'  (1)
  145   154          46.4819401554        1264.8378947444     A''       A'' (2)
  146    96          46.4820639702        1264.8412639162     A'        A'  (1)
  147   155          46.5065566790        1265.5077444069     A''       A'' (2)
  148    97          46.5359022479        1266.3062779323     A'        A'  (1)
  149    98          46.6246363532        1268.7208556918     A'        A'  (1)
  150   156          55.0187417671        1497.1360764097     A''       A'' (2)
  151    99          55.0790671440        1498.7776133693     A'        A'  (1)
  152   100          55.6544336664        1514.4341324050     A'        A'  (1)
  153   101         103.8645992270        2826.2994312546     A'        A'  (1)
  154   157         138.3308626676        3764.1741401001     A''       A'' (2)
  155   102         138.6313096709        3772.3497187002     A'        A'  (1)
  156   103         139.1332193460        3786.0073753005     A'        A'  (1)
  157   104         149.9652820825        4080.7627874364     A'        A'  (1)


  VSCF finished.

 @CHECKOUT-I, Total execution time (CPU/WALL):       73.06/      15.02 seconds.
--executable xvscf finished with status     0 in       15.06 seconds (walltime).
 --invoking executable--
/home/asmola/.local/bin/xvtran
 @GETMEM-I,  Allocated    3814 MB of main memory.
  Full RHF integral transformation
  Transformation of IIII integrals :
  1 pass through the AO integral file was required.
    14245223 AO integrals were read.
    15933126 MO integrals were written to HF2.
  Transformation of IIJJ integrals :
  1 pass through the AO integral file was required.
     6953712 AO integrals were read.
     7813260 MO integrals were written to HF2.
  Transformation of IJIJ integrals :
  1 pass through the AO integral file was required.
    13483677 AO integrals were read.
    15193828 MO integrals were written to HF2.
  Summary of active molecular orbitals: 
------------------------------------------------------------------------
 
  Index      Eigenvalue    Symmetry    Index      Eigenvalue    Symmetry
------------------------------------------------------------------------
     1      -104.8916459        1        80         7.5978220        1
     2       -20.6399628        1        81         7.8199995        1
     3       -10.6115171        1        82         8.7878863        1
     4        -8.0782451        1        83        10.3492185        1
     5        -8.0758967        1        84        10.4419495        1
     6        -1.4140857        1        85        10.6264917        1
     7        -1.0633935        1        86        12.7338752        1
     8        -0.7239424        1        87        13.2274402        1
     9        -0.6051760        1        88        18.2748888        1
    10        -0.4675482        1        89        26.6221312        1
    11        -8.0757462        2        90        27.2253902        1
    12        -0.6141974        2        91        29.1441276        1
    13        -0.4432605        2        92        36.8948582        1
    14         0.0284666        1        93        36.8994018        1
    15         0.0624638        1        94        36.9037879        1
    16         0.1099966        1        95        36.9077098        1
    17         0.1405632        1        96        43.9436425        1
    18         0.1579573        1        97        44.1070144        1
    19         0.1726691        1        98        44.2527444        1
    20         0.1776509        1        99        46.4820640        1
    21         0.2443991        1       100        46.5359022        1
    22         0.3071359        1       101        46.6246364        1
    23         0.3215016        1       102        55.0790671        1
    24         0.3917341        1       103        55.6544337        1
    25         0.4236868        1       104       103.8645992        1
    26         0.4460143        1       105       138.6313097        1
    27         0.5016153        1       106       139.1332193        1
    28         0.6079086        1       107       149.9652821        1
    29         0.6797523        1       108         0.1159255        2
    30         0.7034909        1       109         0.1880672        2
    31         0.7195548        1       110         0.2595960        2
    32         0.7780788        1       111         0.3836507        2
    33         0.8715791        1       112         0.4200719        2
    34         0.8866955        1       113         0.6126101        2
    35         0.9145682        1       114         0.7122924        2
    36         0.9297343        1       115         0.7680656        2
    37         0.9606669        1       116         0.8845157        2
    38         0.9989128        1       117         0.9029111        2
    39         1.0162038        1       118         0.9188273        2
    40         1.1173002        1       119         1.0082696        2
    41         1.2338639        1       120         1.1264702        2
    42         1.2755964        1       121         1.2215938        2
    43         1.3409114        1       122         1.4099351        2
    44         1.3839222        1       123         1.5105524        2
    45         1.5710141        1       124         1.5451477        2
    46         1.6709903        1       125         2.1739503        2
    47         1.7107630        1       126         2.2547711        2
    48         1.8177915        1       127         2.3250490        2
    49         1.9896535        1       128         2.4531033        2
    50         2.2375404        1       129         2.4768986        2
    51         2.2969315        1       130         2.4886980        2
    52         2.3200273        1       131         2.7431424        2
    53         2.3708714        1       132         2.8950850        2
    54         2.4185946        1       133         3.0559409        2
    55         2.4601639        1       134         3.1331036        2
    56         2.5017182        1       135         3.3674024        2
    57         2.5217111        1       136         4.0916834        2
    58         2.7831496        1       137         4.1370000        2
    59         2.9424087        1       138         4.3467318        2
    60         2.9697677        1       139         5.2711894        2
    61         3.0682217        1       140         6.6464726        2
    62         3.1268245        1       141         6.7396239        2
    63         3.2648166        1       142         7.1360027        2
    64         3.3194979        1       143         7.1930359        2
    65         3.4735045        1       144         7.2631252        2
    66         3.7438401        1       145        10.3489923        2
    67         3.8339850        1       146        10.3869814        2
    68         4.3580466        1       147        12.6791050        2
    69         4.5631532        1       148        26.2001454        2
    70         4.6971665        1       149        36.8944224        2
    71         4.8600534        1       150        36.8948590        2
    72         5.1131974        1       151        36.9035825        2
    73         5.5014398        1       152        43.9159276        2
    74         5.8174298        1       153        43.9642517        2
    75         6.2947777        1       154        46.4819402        2
    76         6.6956420        1       155        46.5065567        2
    77         6.7842975        1       156        55.0187418        2
    78         7.2188305        1       157       138.3308627        2
    79         7.2507275        1
------------------------------------------------------------------------
  -104.891645915498       -20.6399628476528       -10.6115171366016     
  -8.07824506803702       -8.07589665977513       -1.41408572477851     
  -1.06339353113595      -0.723942441374978      -0.605175984634907     
 -0.467548213238984       -8.07574617632176      -0.614197391560175     
 -0.443260487348724       2.846663328271029E-002  6.246382889715116E-002
  0.109996603266848       0.140563157325805       0.157957341311830     
  0.172669141688489       0.177650897867340       0.244399143258534     
  0.307135943608528       0.321501615480931       0.391734136962649     
  0.423686782585923       0.446014255221442       0.501615316166879     
  0.607908596458759       0.679752259015390       0.703490887736773     
  0.719554814094078       0.778078848081479       0.871579111749545     
  0.886695511619755       0.914568216929839       0.929734257191244     
  0.960666921748276       0.998912802768044        1.01620378864483     
   1.11730019960909        1.23386391937732        1.27559635595717     
   1.34091136684705        1.38392224153798        1.57101410421502     
   1.67099031990752        1.71076301883737        1.81779148421928     
   1.98965353254286        2.23754040043279        2.29693151049725     
   2.32002726558742        2.37087143460256        2.41859464568428     
   2.46016387250913        2.50171816069885        2.52171112862176     
   2.78314958155259        2.94240865814198        2.96976774824206     
   3.06822168357652        3.12682451450842        3.26481658826584     
   3.31949791632763        3.47350452192461        3.74384010914773     
   3.83398503154211        4.35804663354026        4.56315321879325     
   4.69716653798497        4.86005338399256        5.11319743594451     
   5.50143984606946        5.81742983119000        6.29477771663492     
   6.69564199574088        6.78429750946458        7.21883051291160     
   7.25072745527692        7.59782204392741        7.81999954244327     
   8.78788634501874        10.3492185061506        10.4419495121673     
   10.6264917072621        12.7338752127345        13.2274401913846     
   18.2748887714939        26.6221312498507        27.2253902278892     
   29.1441276186197        36.8948581822301        36.8994017669155     
   36.9037878706368        36.9077097973707        43.9436424785365     
   44.1070143703992        44.2527444468513        46.4820639701930     
   46.5359022478914        46.6246363531748        55.0790671439838     
   55.6544336663528        103.864599227049        138.631309670943     
   139.133219346007        149.965282082514       0.115925497381617     
  0.188067189057219       0.259596048561588       0.383650748611316     
  0.420071909906213       0.612610097046734       0.712292424141187     
  0.768065562384527       0.884515667760539       0.902911078453616     
  0.918827342112045        1.00826959967527        1.12647020995657     
   1.22159378413112        1.40993514754830        1.51055241055601     
   1.54514772081354        2.17395026553292        2.25477105693910     
   2.32504896215853        2.45310325025197        2.47689860675296     
   2.48869796633769        2.74314243308887        2.89508501002892     
   3.05594093298384        3.13310355132087        3.36740239963588     
   4.09168342832421        4.13700003649676        4.34673178283230     
   5.27118935327964        6.64647262290278        6.73962391323306     
   7.13600265976598        7.19303593645758        7.26312517124740     
   10.3489923341551        10.3869814210433        12.6791050281044     
   26.2001454191133        36.8944223802464        36.8948590431518     
   36.9035825255260        43.9159275500667        43.9642516979091     
   46.4819401553998        46.5065566790304        55.0187417670842     
   138.330862667574     
 @CHECKOUT-I, Total execution time (CPU/WALL):       34.00/      19.27 seconds.
--executable xvtran finished with status     0 in       19.37 seconds (walltime).
 --invoking executable--
/home/asmola/.local/bin/xintprc
 @GETMEM-I,  Allocated    3814 MB of main memory.
  Processing integrals for CCSD calculation.
  @GMOIAA-I, Processing MO integrals for spin case AA.
  @GMOIAA-I, Generation of integral list completed.
                      TYPE                NUMBER
                      ----               --------
                      PPPP              27524020
                      PPPH               9932000
                      PPHH                900748
                      PHPH                491140
                      PHHH                 89950
                      HHHH                  2356

                     TOTAL              38940214

  @FORMT2-I, Second-order MP correlation energies:
            ------------------------------------------------
            E(SCF)                  =   -534.924585382816 a.u.
            E2(AA)                  =     -0.107388535925 a.u.
            E2(AB)                  =     -0.629845315407 a.u.
            E2(TOT)                 =     -0.844622387256 a.u.
            Total MP2 energy        =   -535.769207770072 a.u.
            ------------------------------------------------
   Largest T2 amplitudes for spin case AB:
       _       _                 _       _                 _       _
   i   j   a   b             i   j   a   b             i   j   a   b
-----------------------------------------------------------------------------
[  9   9  15  15]-0.02003 [  9   9  17  17]-0.01963 [  9   9  17  15] 0.01894
[  9   9  15  17] 0.01894 [ 13  13 112 112]-0.01778 [ 13  13 113 113]-0.01552
[ 13  13 116 116]-0.01482 [  8   8  25  25]-0.01455 [  9   9  20  15] 0.01439
[  9   9  15  20] 0.01439 [ 10  10  26  26]-0.01419 [  9   9  18  17] 0.01368
[  9   9  17  18] 0.01368 [  9   9  18  15]-0.01348 [  9   9  15  18]-0.01348
-----------------------------------------------------------------------------
   Norm of T2AB vector (  1799624 symmetry allowed elements):  0.3243588907.
-----------------------------------------------------------------------------
 @CHECKOUT-I, Total execution time (CPU/WALL):        6.58/       9.41 seconds.
--executable xintprc finished with status     0 in        9.55 seconds (walltime).
  calling xvcc 
 --invoking executable--
/home/asmola/.local/bin/xvcc
 @GETMEM-I,  Allocated    3814 MB of main memory.
   CCSD energy will be calculated.
   The total correlation energy is -0.844622387256 a.u.
   The total correlation energy is -0.845879666452 a.u.
  Convergence information after     1 iterations: 
  Largest element of residual vector : -0.12027402E-01.
  Largest element of DIIS residual   : -0.12027402E-01.
   The total correlation energy is -0.859431830035 a.u.
  Convergence information after     2 iterations: 
  Largest element of residual vector : -0.28715740E-02.
  Largest element of DIIS residual   : -0.26447727E-02.
   The total correlation energy is -0.859361262114 a.u.
  Convergence information after     3 iterations: 
  Largest element of residual vector : -0.19065539E-02.
  Largest element of DIIS residual   : -0.11516633E-02.
   The total correlation energy is -0.860643777637 a.u.
  Convergence information after     4 iterations: 
  Largest element of residual vector : -0.26063665E-03.
  Largest element of DIIS residual   :  0.23571246E-03.
   The total correlation energy is -0.860768840774 a.u.
  Convergence information after     5 iterations: 
  Largest element of residual vector : -0.22993812E-03.
  Largest element of DIIS residual   : -0.17552182E-03.
   The total correlation energy is -0.860769542192 a.u.
  Convergence information after     6 iterations: 
  Largest element of residual vector : -0.10197085E-03.
  Largest element of DIIS residual   : -0.79887533E-04.
   The total correlation energy is -0.860770514573 a.u.
  Convergence information after     7 iterations: 
  Largest element of residual vector : -0.76768150E-04.
  Largest element of DIIS residual   : -0.55226284E-04.
   The total correlation energy is -0.860770191785 a.u.
  Convergence information after     8 iterations: 
  Largest element of residual vector : -0.37097823E-04.
  Largest element of DIIS residual   : -0.23460220E-04.
   The total correlation energy is -0.860770011001 a.u.
  Convergence information after     9 iterations: 
  Largest element of residual vector : -0.20105745E-04.
  Largest element of DIIS residual   : -0.11484707E-04.
   The total correlation energy is -0.860770815362 a.u.
  Convergence information after    10 iterations: 
  Largest element of residual vector : -0.94552608E-05.
  Largest element of DIIS residual   : -0.47454850E-05.
   The total correlation energy is -0.860771066306 a.u.
  Convergence information after    11 iterations: 
  Largest element of residual vector : -0.28096168E-05.
  Largest element of DIIS residual   :  0.18478748E-05.
   The total correlation energy is -0.860771222078 a.u.
  Convergence information after    12 iterations: 
  Largest element of residual vector : -0.16774400E-05.
  Largest element of DIIS residual   : -0.81855765E-06.
   The total correlation energy is -0.860771279871 a.u.
  Convergence information after    13 iterations: 
  Largest element of residual vector : -0.44221803E-06.
  Largest element of DIIS residual   : -0.40860508E-06.
   The total correlation energy is -0.860771287243 a.u.
  Convergence information after    14 iterations: 
  Largest element of residual vector : -0.31400021E-06.
  Largest element of DIIS residual   : -0.20589726E-06.
   The total correlation energy is -0.860771288975 a.u.
  Convergence information after    15 iterations: 
  Largest element of residual vector : -0.13731331E-06.
  Largest element of DIIS residual   :  0.11053623E-06.
   The total correlation energy is -0.860771289004 a.u.
  Convergence information after    16 iterations: 
  Largest element of residual vector : -0.97693088E-07.
  Largest element of DIIS residual   : -0.48077863E-07.
   The total correlation energy is -0.860771289851 a.u.
  Convergence information after    17 iterations: 
  Largest element of residual vector : -0.48402760E-07.
  Largest element of DIIS residual   : -0.28877484E-07.
   The total correlation energy is -0.860771289979 a.u.
  Convergence information after    18 iterations: 
  Largest element of residual vector : -0.19514291E-07.
  Largest element of DIIS residual   : -0.12588932E-07.
   The total correlation energy is -0.860771290216 a.u.
  Convergence information after    19 iterations: 
  Largest element of residual vector : -0.12094999E-07.
  Largest element of DIIS residual   : -0.63071430E-08.
   The total correlation energy is -0.860771290375 a.u.
  Convergence information after    20 iterations: 
  Largest element of residual vector : -0.32433290E-08.
  Largest element of DIIS residual   : -0.24209761E-08.
   The total correlation energy is -0.860771290407 a.u.
  Convergence information after    21 iterations: 
  Largest element of residual vector : -0.21438272E-08.
  Largest element of DIIS residual   : -0.13381597E-08.
   The total correlation energy is -0.860771290437 a.u.
  Convergence information after    22 iterations: 
  Largest element of residual vector : -0.90240136E-09.
  Largest element of DIIS residual   : -0.73437444E-09.
   The total correlation energy is -0.860771290434 a.u.
  Convergence information after    23 iterations: 
  Largest element of residual vector : -0.58588757E-09.
  Largest element of DIIS residual   :  0.33194574E-09.
   The total correlation energy is -0.860771290434 a.u.
  Convergence information after    24 iterations: 
  Largest element of residual vector : -0.29634245E-09.
  Largest element of DIIS residual   : -0.25961328E-09.
   The total correlation energy is -0.860771290434 a.u.
  Convergence information after    25 iterations: 
  Largest element of residual vector : -0.17434853E-09.
  Largest element of DIIS residual   : -0.13089295E-09.
   The total correlation energy is -0.860771290435 a.u.
  Convergence information after    26 iterations: 
  Largest element of residual vector : -0.11064047E-09.
  Largest element of DIIS residual   : -0.76259377E-10.
[...]
 final tnorm  0.845897937224914     
  norm contr. I: |<0|L dT/dx|0>|^2   0.000000000000000E+000
  norm contr. II: <0|[nabla(1+L)e-T][nabla e^T]|0>  0.483086509674592     
  total norm contribution  0.483086509674592     
 oo  2.095796309044323E-003
 vv  -1.53894536827499     
 vo -2.439395943690782E-002
  Correlated perturbed 1-el contribution to DBOC  -1.56124353140285       cm**-1
  SUM_I |dc_I/dx|^2 contribution to DBOC  0.786914242068013       cm**-1
 
 
  The total diagonal Born-Oppenheimer correction (DBOC) is:      0.0084022787 a.u.
  The total diagonal Born-Oppenheimer correction (DBOC) is:       1844.087013 cm-1
 
 Total CC energy including DBOC  -535.776954394586     
 First-order density matrix is being calculated  (Symmetry block 2, perturbation   3)
 Calculation of the contributions of <pq||rs> to dI(i,j)/dx required   3.4 seconds.
 Calculation of the contributions of <pq||rs> to dI(a,b)/dx required   9.9 seconds.
 Calculation of the contributions of <pq||rs> to dI(i,a)/dx required   6.1 seconds.
 First-order Z-vector equations are solved for 1 perturbation.
 Convergence reached after  22 iterations.
        U*G(pq,rs) contribution is being calculated
             (Symmetry block 2, perturbation   3)

 CCSD contribution to force constants 

        0.0000000000        0.0000000000        0.0000000000
        0.0000000000        0.0000000000        0.0000000000
        0.0000000000        0.0000000000        0.0000000000
        0.0000000000        0.0000000000        0.0000000000
        0.0000000000        0.0000000000        0.0000000000
        0.0000000000        0.0000000000        0.0000000000
        0.0000000000        0.0000000000        0.0000000000
        0.0000000000        0.0000000000        0.0000000000
        0.0000000000        0.0000000000        0.0000000000
        0.0000000000        0.0000000000        0.0000000000
        0.0000000000        0.0000000000        0.0000000000
        0.0000000000        0.0000000000        0.0000000000
        0.0000000000        0.0000000000        0.0000000000
        0.0000000000        0.0000000000        0.0000000000
        0.0000000000        0.0000000000        0.0000000000
        0.0000000000        0.0000000000        0.0000000000
        0.0000000000        0.0000000000        0.0000000000
        0.0000000000        0.0000000000        0.0000000000
        0.0000000000        0.0000000000        0.0000000000
        0.0000000000        0.0000000000        0.0000000000
        0.0000000000        0.0000000000        0.0000000000
        0.0000000000        0.0000000000        0.0000000000
        0.0000000000        0.0000000000        0.0000000000
        0.0000000000        0.0000000000        0.0000000000
        0.0000000000        0.0000000000        0.0000000000
        0.0000000000        0.0000000000        0.0000000000
        0.0104260784        0.1212857455       -0.1317118239

 CCSD contribution to dipole derivatives 

        0.0000000000        0.0000000000        0.0000000000
        0.0000000000        0.0000000000        0.0000000000
        0.0000000000        0.0000000000        0.0000000000
        0.0000000000        0.0000000000        0.0000000000
        0.0000000000        0.0000000000        0.0000000000
        0.0000000000        0.0000000000        0.0000000000
        0.0000000000        0.0000000000        0.0000000000
        0.0000000000        0.0000000000        0.0000000000
        0.0000000000        0.0000000000        0.0119504711
 @CHECKOUT-I, Total execution time (CPU/WALL):      943.28/     248.69 seconds.
--executable xsdcc finished with status     0 in      248.86 seconds (walltime).
 --invoking executable--
/home/asmola/.local/bin/xanti
 @GETMEM-I,  Allocated    3814 MB of main memory.
 CCSD MO derivative gammas will be sorted to Mulliken order.
 @CHECKOUT-I, Total execution time (CPU/WALL):        6.30/       4.96 seconds.
--executable xanti finished with status     0 in        5.25 seconds (walltime).
 --invoking executable--
/home/asmola/.local/bin/xbcktrn
 @GETMEM-I,  Allocated    3814 MB of main memory.
 CCSD MO derivative gammas will be transformed to the AO basis.
 @CHECKOUT-I, Total execution time (CPU/WALL):       11.03/       2.63 seconds.
--executable xbcktrn finished with status     0 in        2.77 seconds (walltime).
 --invoking executable--
/home/asmola/.local/bin/xvdint
 @GETMEM-I,  Allocated    3814 MB of main memory.
 One- and two-electron integral derivatives are calculated
 for RHF-CC/MBPT hessians and dipole derivatives.
 Spherical gaussians are used.
  magnet F F
 Evaluation of 2el integral derivatives

                      Two-electron integral gradient
                      ------------------------------

                         O #1 x     0.0000000000
                         O #1 y     0.0000000000
                         H #2 x     0.0000000000
                         H #2 y     0.0000000000
                         CL#3 x     0.0000000000
                         CL#3 y     0.0000000000


 O #1       0.0000000000            0.0000000000           -0.0917417605
 H #2       0.0000000000            0.0000000000            0.0045641257
 CL#3       0.0000000000            0.0000000000            0.0871776348


 Evaluation of 2e integral derivatives required  122.21 seconds.
  contribution to Hessian
        0.0000000000        0.0000000000        0.0000000000
        0.0000000000        0.0000000000        0.0000000000
       -0.0917417605        0.0045641257        0.0871776348
 @CHECKOUT-I, Total execution time (CPU/WALL):      122.41/      21.18 seconds.
--executable xvdint finished with status     0 in       21.37 seconds (walltime).
 --invoking executable--
/home/asmola/.local/bin/xanti
 @GETMEM-I,  Allocated    3814 MB of main memory.
 CCSD MO gammas will be sorted to Mulliken order.
 @CHECKOUT-I, Total execution time (CPU/WALL):        9.42/      15.65 seconds.
--executable xanti finished with status     0 in       15.77 seconds (walltime).
 --invoking executable--
/home/asmola/.local/bin/xbcktrn
 @GETMEM-I,  Allocated    3814 MB of main memory.
 CCSD MO gammas will be transformed to the AO basis.
 @CHECKOUT-I, Total execution time (CPU/WALL):       18.08/       3.37 seconds.
--executable xbcktrn finished with status     0 in        3.49 seconds (walltime).
 --invoking executable--
/home/asmola/.local/bin/xvdint
 @GETMEM-I,  Allocated    3814 MB of main memory.
 One- and two-electron integral derivatives are calculated
 for RHF-CC/MBPT hessians and dipole derivatives.
 Spherical gaussians are used.
  magnet F F

                     Kinetic energy integral gradient
                     --------------------------------

                         O #1 x     0.0280946417
                         O #1 y    -0.5830225271
                         H #2 x     0.3134298998
                         H #2 y     0.6088203416
                         CL#3 x    -0.3415245416
                         CL#3 y    -0.0257978144


 O #1       0.0280946417           -0.5830225271            0.0000000000
 H #2       0.3134298998            0.6088203416            0.0000000000
 CL#3      -0.3415245416           -0.0257978144            0.0000000000



                   Nuclear attraction integral gradient
                   ------------------------------------

                         O #1 x   -23.3643160766
                         O #1 y     6.3914548559
                         H #2 x    -4.7540619214
                         H #2 y    -6.6284548337
                         CL#3 x    28.1183779980
                         CL#3 y     0.2369999779


 O #1     -23.3643160766            6.3914548559            0.0000000000
 H #2      -4.7540619214           -6.6284548337            0.0000000000
 CL#3      28.1183779980            0.2369999779            0.0000000000



                      Reorthonormalization gradient
                      -----------------------------

                         O #1 x     0.0000000000
                         O #1 y     0.0000000000
                         H #2 x     0.0000000000
                         H #2 y     0.0000000000
                         CL#3 x     0.0000000000
                         CL#3 y     0.0000000000


 O #1       0.0000000000            0.0000000000            0.0000000000
 H #2       0.0000000000            0.0000000000            0.0000000000
 CL#3       0.0000000000            0.0000000000            0.0000000000



                     Kinetic energy integral Hessian
                     -------------------------------


           Symmetry 1

           O #1 x      O #1 y      H #2 x      H #2 y      CL#3 x      CL#3 y

 O #1 x   -0.112368
 O #1 y    0.450069    0.119562
 H #2 x    0.478898   -0.442783   -0.481221
 H #2 y   -0.442783   -0.332580    0.455042    0.335984
 CL#3 x   -0.366530   -0.007286    0.002323   -0.012259    0.364207
 CL#3 y   -0.007286    0.213018   -0.012259   -0.003404    0.019545   -0.209614


           Symmetry 2

           O #1 z      H #2 z      CL#3 z

 O #1 z   -0.934965
 H #2 z    0.731703   -0.736921
 CL#3 z    0.203262    0.005218   -0.208480




           O #1 x      O #1 y      O #1 z      H #2 x      H #2 y      H #2 z

 O #1 x   -0.112368
 O #1 y    0.450069    0.119562
 O #1 z    0.000000    0.000000   -0.934965

 H #2 x    0.478898   -0.442783    0.000000   -0.481221
 H #2 y   -0.442783   -0.332580    0.000000    0.455042    0.335984
 H #2 z    0.000000    0.000000    0.731703    0.000000    0.000000   -0.736921

 CL#3 x   -0.366530   -0.007286    0.000000    0.002323   -0.012259    0.000000
 CL#3 y   -0.007286    0.213018    0.000000   -0.012259   -0.003404    0.000000
 CL#3 z    0.000000    0.000000    0.203262    0.000000    0.000000    0.005218


           CL#3 x      CL#3 y      CL#3 z

 CL#3 x    0.364207
 CL#3 y    0.019545   -0.209614
 CL#3 z    0.000000    0.000000   -0.208480




                   Nuclear attraction integral Hessian
                   -----------------------------------


           Symmetry 1

           O #1 x      O #1 y      H #2 x      H #2 y      CL#3 x      CL#3 y

 O #1 x   -8.711479
 O #1 y   -2.342821    9.883649
 H #2 x   -5.539338    3.255158    5.017443
 H #2 y    3.265450    0.384700   -4.075741   -0.466154
 CL#3 x   14.250816   -0.912336    0.521894    0.810290  -14.772711
 CL#3 y   -0.922629  -10.268349    0.820583    0.081454    0.102046   10.186894


           Symmetry 2

           O #1 z      H #2 z      CL#3 z

 O #1 z   17.073448
 H #2 z   -7.385900    7.854603
 CL#3 z   -9.687548   -0.468703   10.156251




           O #1 x      O #1 y      O #1 z      H #2 x      H #2 y      H #2 z

 O #1 x   -8.711479
 O #1 y   -2.342821    9.883649
 O #1 z    0.000000    0.000000   17.073448

 H #2 x   -5.539338    3.255158    0.000000    5.017443
 H #2 y    3.265450    0.384700    0.000000   -4.075741   -0.466154
 H #2 z    0.000000    0.000000   -7.385900    0.000000    0.000000    7.854603

 CL#3 x   14.250816   -0.912336    0.000000    0.521894    0.810290    0.000000
 CL#3 y   -0.922629  -10.268349    0.000000    0.820583    0.081454    0.000000
 CL#3 z    0.000000    0.000000   -9.687548    0.000000    0.000000   -0.468703


           CL#3 x      CL#3 y      CL#3 z

 CL#3 x  -14.772711
 CL#3 y    0.102046   10.186894
 CL#3 z    0.000000    0.000000   10.156251




                Highest order reorthonormalization Hessian
                ------------------------------------------


           Symmetry 1

           O #1 x      O #1 y      H #2 x      H #2 y      CL#3 x      CL#3 y

 O #1 x    0.000000
 O #1 y    0.000000    0.000000
 H #2 x    0.000000    0.000000    0.000000
 H #2 y    0.000000    0.000000    0.000000    0.000000
 CL#3 x    0.000000    0.000000    0.000000    0.000000    0.000000
 CL#3 y    0.000000    0.000000    0.000000    0.000000    0.000000    0.000000


           Symmetry 2

           O #1 z      H #2 z      CL#3 z

 O #1 z    0.000000
 H #2 z    0.000000    0.000000
 CL#3 z    0.000000    0.000000    0.000000




           O #1 x      O #1 y      O #1 z      H #2 x      H #2 y      H #2 z


           CL#3 x      CL#3 y      CL#3 z




                Electronic contributions to dipole moment
                -----------------------------------------

                               au             Debye

                    x      2.72322578      6.92175071
                    y      0.20281295      0.51549919

  Conversion factor used: 1 a.u. =   2.54174691 Debye 



   Electronic contributions to static part of dipole moment derivatives
   --------------------------------------------------------------------


                     Total dipole moment derivatives
                     -------------------------------


           Symmetry 1
                              Ex             Ey

               O #1 x    -8.86855510    -0.07639258
               O #1 y    -0.26620999    -8.77115518
               H #2 x    -0.32967557     0.12330830
               H #2 y     0.34263116    -0.36555902
               CL#3 x   -16.80176934    -0.04691572
               CL#3 y    -0.07642117   -16.86328580

           Symmetry 2
                              Ez

               O #1 z    -8.39269180
               H #2 z    -0.73022914
               CL#3 z   -16.87707905



                       Ex          Ey          Ez

      O #1    x   -8.868555   -0.076393    0.000000
      O #1    y   -0.266210   -8.771155    0.000000
      O #1    z    0.000000    0.000000   -8.392692

      H #2    x   -0.329676    0.123308    0.000000
      H #2    y    0.342631   -0.365559    0.000000
      H #2    z    0.000000    0.000000   -0.730229

      CL#3    x  -16.801769   -0.046916    0.000000
      CL#3    y   -0.076421  -16.863286    0.000000
      CL#3    z    0.000000    0.000000  -16.877079

 Evaluation of 1e integral derivatives required    1.58 seconds.
 Evaluation of 2el integral derivatives

                      Two-electron integral gradient
                      ------------------------------

                         O #1 x    10.6794549452
                         O #1 y    -2.7385974517
                         H #2 x     2.5575642752
                         H #2 y     3.0739388618
                         CL#3 x   -13.2370192204
                         CL#3 y    -0.3353414101


 O #1      10.6794549452           -2.7385974517            0.0000000000
 H #2       2.5575642752            3.0739388618            0.0000000000
 CL#3     -13.2370192204           -0.3353414101            0.0000000000


 Evaluation of 2e integral derivatives required  300.36 seconds.

                            Molecular gradient
                            ------------------

                         O #1 x    -0.0255185683
                         O #1 y     0.2366101200
                         H #2 x    -0.1455202744
                         H #2 y    -0.2595299425
                         CL#3 x     0.1710388427
                         CL#3 y     0.0229198225


 O #1      -0.0255185683            0.2366101200            0.0000000000
 H #2      -0.1455202744           -0.2595299425            0.0000000000
 CL#3       0.1710388427            0.0229198225            0.0000000000


  Molecular gradient norm 0.418E+00

                            Molecular hessian
                            -----------------


           Symmetry 1

           O #1 x      O #1 y      H #2 x      H #2 y      CL#3 x      CL#3 y

 O #1 x    3.402110
 O #1 y    2.496815    9.036976
 H #2 x   -1.566377   -4.427610    1.519334
 H #2 y   -2.680704   -8.915309    2.940669    8.375555
 CL#3 x   -1.835732    0.515517   -0.274647   -0.286006    2.110380
 CL#3 y    0.183889   -0.121666   -0.194546    0.091031    0.010657    0.030635


           Symmetry 2

           O #1 z      H #2 z      CL#3 z

 O #1 z   -2.812149
 H #2 z    2.979522   -3.208422
 CL#3 z   -0.167372    0.114863    0.052510




           O #1 x      O #1 y      O #1 z      H #2 x      H #2 y      H #2 z

 O #1 x    3.402110
 O #1 y    2.496815    9.036976
 O #1 z    0.000000    0.000000   -2.812149

 H #2 x   -1.566377   -4.427610    0.000000    1.519334
 H #2 y   -2.680704   -8.915309    0.000000    2.940669    8.375555
 H #2 z    0.000000    0.000000    2.979522    0.000000    0.000000   -3.208422

 CL#3 x   -1.835732    0.515517    0.000000   -0.274647   -0.286006    0.000000
 CL#3 y    0.183889   -0.121666    0.000000   -0.194546    0.091031    0.000000
 CL#3 z    0.000000    0.000000   -0.167372    0.000000    0.000000    0.114863


           CL#3 x      CL#3 y      CL#3 z

 CL#3 x    2.110380
 CL#3 y    0.010657    0.030635
 CL#3 z    0.000000    0.000000    0.052510




                           Total dipole moment
                           -------------------

                               au             Debye

                    x     -0.15526434     -0.39464267
                    y     -0.57495563     -1.46139171

  Conversion factor used: 1 a.u. =   2.54174691 Debye 



                     Total dipole moment derivatives
                     -------------------------------


           Symmetry 1
                              Ex             Ey

               O #1 x    -0.47606463    -0.05117087
               O #1 y    -0.17310215    -0.18051167
               H #2 x     0.24865143     0.01838883
               H #2 y     0.11340888     0.20316304
               CL#3 x     0.22741362     0.03278190
               CL#3 y     0.05969332    -0.02265137

           Symmetry 2
                              Ez

               O #1 z    -0.34682747
               H #2 z     0.33359087
               CL#3 z     0.01323662



                       Ex          Ey          Ez

      O #1    x   -0.476065   -0.051171    0.000000
      O #1    y   -0.173102   -0.180512    0.000000
      O #1    z    0.000000    0.000000   -0.346827

      H #2    x    0.248651    0.018389    0.000000
      H #2    y    0.113409    0.203163    0.000000
      H #2    z    0.000000    0.000000    0.333591

      CL#3    x    0.227414    0.032782    0.000000
      CL#3    y    0.059693   -0.022651    0.000000
      CL#3    z    0.000000    0.000000    0.013237

  Molecular gradient does not satisfy rotational invariance condition.
   rotational invariance in yz-plane :        0.0000E+00
   rotational invariance in xz-plane :        0.0000E+00
   rotational invariance in xy-plane :        -.1075E-02
 @CHECKOUT-I, Total execution time (CPU/WALL):      302.03/      44.02 seconds.
--executable xvdint finished with status     0 in       44.19 seconds (walltime).
 --invoking executable--
/home/asmola/.local/bin/xjoda
  @GTFLGS-I, Hessian will be transformed to curvilinear coordinates.
  @GTFLGS-I, Hessian will be transformed to curvilinear coordinates.
  igrd and ihes are                      0                     1
  gradient from JOBARC 
  -0.025518568282881   0.236610120005410   0.000000000000000
  -0.145520274425958  -0.259529942496598   0.000000000000000
   0.171038842708846   0.022919822491191   0.000000000000000
 
  @PROJFCM-I, Projecting force constant matrix onto totally symmetric subspace.
  Largest difference between matrix elements of symmetrized
  and unsymmetrized FCM :     0.0000000000E+00.
  read isotopes from ZMAT file 
 
  Summary of diagonal Born-Oppenheimer correction at the correlated level
  The total diagonal Born-Oppenheimer correction (DBOC) is:      0.0084022787 a.u.
  The total diagonal Born-Oppenheimer correction (DBOC) is:       1844.087013 cm-1
  The total diagonal Born-Oppenheimer correction (DBOC) is:            22.060 kJ/mole
  hellooooooo 
  readis is  F
 
 @CHECKOUT-I, Total execution time (CPU/WALL):        0.02/       0.13 seconds.
--executable xjoda finished with status     0 in        0.38 seconds (walltime).
  The final electronic energy is      -535.776954394585687 a.u. 
  This computation required                         2764.15 seconds (walltime).
