 --invoking executable--
/home/asmola/.local/bin/xjoda


   *************************************************************************
         <<<     CCCCCC     CCCCCC   |||     CCCCCC     CCCCCC   >>>
       <<<      CCC        CCC       |||    CCC        CCC         >>>
      <<<      CCC        CCC        |||   CCC        CCC            >>>
    <<<        CCC        CCC        |||   CCC        CCC              >>>
      <<<      CCC        CCC        |||   CCC        CCC            >>>
       <<<      CCC        CCC       |||    CCC        CCC         >>>
         <<<     CCCCCC     CCCCCC   |||     CCCCCC     CCCCCC   >>>
   *************************************************************************

     ****************************************************************
     * CFOUR Coupled-Cluster techniques for Computational Chemistry *
     ****************************************************************
 

   Department of Chemistry                Institut fuer Physikalische Chemie
   University of Florida                  Universitaet Mainz
   Gainesville, FL 32611, USA             D-55099 Mainz, Germany

   Department of Chemistry                Fakultaet fuer Chemie und Biowiss.
   Johns Hopkins University               Karlsruher Institut fuer Technologie
   Baltimore, MD 21218, USA               D-76131 Karlsruhe, Germany

   Department of Chemistry                Department of Physical Chemistry
   Southern Methodist University          Eotvos Lorand University
   Dallas, TX 75275, USA                  H-1053 Budapest, Hungary

 
                       Version 2.1
 
                     vincent.theory.phys.ucl.ac.uk                     
                     Thu 30 Jan 00:08:15 GMT 2025                      
                     integer*8 version is running
 
********************************************************************************
*                          Input from ZMAT file                                *
********************************************************************************
Hypochlorous acid DBOC calculation                                              
O                                                                               
H 1 ROH                                                                         
CL 1 ROCL 2 A                                                                   
                                                                                
ROH=1.0000000000000002                                                          
ROCL=1.683                                                                      
A=107.0                                                                         
                                                                                
                                                                                
*CFOUR(CALC=CCSD,BASIS=AUG-PCVTZ,SCF_CONV=10                                    
CC_CONV=10,DBOC=ON,MEMORY=500000000)                                            
                                                                                
%isotopes                                                                       
16                                                                              
1                                                                               
37                                                                              
********************************************************************************
  @GTFLGS-I, Hessian will be transformed to curvilinear coordinates.
    -------------------------------------------------------------------
                    CFOUR Control Parameters 
    -------------------------------------------------------------------
        External           Internal           Value            Units
          Name               Name
    -------------------------------------------------------------------
       ABCDTYPE             IABCDT         STANDARD    [  0]    ***   
       ANHARMONIC           IANHAR         OFF         [  0]    ***   
       ANH_ALGORIT          IANALG         STANDARD    [  0]    ***   
       ANH_DERIVAT          IANDER         SECOND      [  1]    ***   
       ANH_MODE             ANHMOD         VIBRATION   [  0]    ***   
       ANH_STEPSIZ          ICUBST             50000          x 10-6  
       ANH_SYMMETR          IANHSM         ABELIAN     [  0]    ***   
       AO_LADDERS           IAOLAD         SINGLEPASS  [  1]    ***   
       AV_SCF               IAVSCF         OFF         [  0]    ***   
       BASIS                IBASIS         AUG-PCVTZ   [ 51]    ***   
       BOTHVECTORS          BOTHVC         OFF         [  0]    ***   
       BOX_POTENT           IPIAB          OFF         [  0]    ***   
       BREIT                IBREIT         OFF         [  0]    ***   
       BRUCK_CONV           IBRTOL          10D-  4             ***   
       BRUECKNER            IBRKNR         OFF         [  0]    ***   
       BUFFERSIZE           IBUFFS              4096            ***   
       CACHE_RECS           ICHREC             10               ***   
       CALCLEVEL            ICLLVL         CCSD        [ 10]    ***   
       CCORBOPT             ICCORB         OFF         [  0]  x 0.01  
       CC_CONV              ICCCNV          10D- 10             ***   
       CC_EXPORDER          ICCEOR              5               ***   
       CC_EXTRAPOL          ICCEXT         DIIS        [  1]    ***   
       CC_GUESS             ICCGES         MP2         [  0]    ***   
       CC_MAXCYC            ICCCYC            100              cycles 
       CC_PROGRAM           ICCPRO         VCC         [  0]    ***   
       CHARGE               ICHRGE              0               ***   
       CHOLESKY             ICHOLE         OFF         [  0]    ***   
       CIS_CONV             ICISTL              5               ***   
       COMM_SIZE            IPSIZE            ***               ***   
       CONSTANT             ICONST         OLD         [  1]    ***   
       CONTINUUM            ICONTU         NONE        [  0]    ***   
       CONTRACTION          ICNTYP         GENERAL     [  1]    ***   
       COORDINATES          ICOORD         INTERNAL    [  0]    ***   
       CPHF_CONVER          ICPHFT          10D- 16             ***   
       CPHF_MAXCYC          ICPHFC             64              cycles 
       CUBIC                ICUBIC         OFF         [  0]    ***   
       CURVILINEAR          ICURVY         ON          [  1]    ***   
       DBOC                 IDBOC          ON          [  1]    ***   
       DCT                  IDCT           OFF         [  0]    ***   
       DERIV_LEV            IDRLVL         SECOND      [  2]    ***   
       DEVMEM_SIZE          IDVMEM          50000000           MByte  
       DIAG_MRCC            IEOMST          10D-  0             ***   
       DIFF_TYPE            IDIFTY         RELAXED     [  0]    ***   
       DIRECT               IDIRCT         OFF         [  0]    ***   
       DROPMO               IDRPMO      NONE         
       ECP                  IECP           OFF         [  0]    ***   
       EIGENVECTOR          IVEC                1               ***   
       EL_ANHARM            IELANH         OFF         [  0]    ***   
       EOMFOLLOW            IEOMSR         ENERGY      [  0]    ***   
       EOMIP                IEOMIP         OFF         [  0]    ***   
       EOMLEVEL             HBARFM         SAME        [  0]    ***   
       EOM_MRCC             IMRCCE         NEW         [  1]    ***   
       EOM_NONIT            EOMNON         OFF         [  0]    ***   
       EOM_NSING            IEOMSI          10D-  0             ***   
       EOM_NSTATES          IMRCCD         DAVIDSON    [  0]    ***   
       EOM_NTRIP            IEOMTR          10D-  0             ***   
       EOM_ORDER            IEXORD         ENERGY      [  0]    ***   
       EOM_PROPSTA          IEOMST              0               ***   
       ESTATE_CONV          IEXTOL          10D-  5             ***   
       ESTATE_DIAG          IEXDIG         ITERATIVE   [  0]    ***   
       ESTATE_LOCK          IESLOC         ON          [  1]    ***   
       ESTATE_MAXC          IEXMXC             40               ***   
       ESTATE_PROP          IEXPRP         OFF         [  0]    ***   
       EVAL_HESS            IRECAL              0            # of cyc.
       EXCITATION           IEXCIT              0               ***   
       EXCITE               IEXCIT         NONE        [  0]    ***   
       EXTERN_POT           IEXPOT         OFF         [  0]    ***   
       FCGRADNEW            IFCGNW         OFF         [  0]    ***   
       FC_FIELD             IFINFC              0             x 10-6  
       FD_CALTYPE           IFDCAL         GRADONLY    [  0]    ***   
       FD_PROJECT           IFDPRJ         OFF         [  1]    ***   
       FD_STEPSIZE          IDISFD              0            10-4 bohr
       FD_USEGROUP          IFDGRP         FULL        [  0]    ***   
       FILE_RECSIZ          IFLREC              4096           words  
       FINITE_PERT          IFIPER              0             x 10-6  
       FIXGEOM              IFIXGM         OFF         [  0]    ***   
       FOCK                 IFOCK          AO          [  1]    ***   
       FREQ_ALGORI          IVIALG         STANDARD    [  0]    ***   
       FROZEN_CORE          IFROCO         OFF         [  0]    ***   
       GAMMA_ABCD           IGABCD         STORE       [  0]    ***   
       GAMMA_ABCI           IGABCI         STORE       [  0]    ***   
       GENBAS_1             IGNBS1              0               ***   
       GENBAS_2             IGNBS2              0               ***   
       GENBAS_3             IGNBS3              0               ***   
       GENBAS_4             IGNBS4              0               ***   
       GEO_CONV             ICONTL              5              H/bohr 
       GEO_MAXCYC           IOPTCY             50               ***   
       GEO_MAXSTEP          IMXSTP            300            millibohr
       GEO_METHOD           INR            SINGLE_POINT[  5]    ***   
       GIAO                 IGIAO          OFF         [  1]    ***   
       GIMIC                IGIMIC         OFF         [  0]    ***   
       GRID                 IGRID          OFF         [  0]    ***   
       GRID_ALGO            IGALGO         SERIAL      [  0]    ***   
       GUESS                IGUESS         MOREAD      [  0]    ***   
       HBAR                 IHBAR          OFF         [  0]    ***   
       HESS_TYPE            IHESTP         SCF         [  0]    ***   
       HF2_FILE             IHF2Fl         USE         [  1]    ***   
       HFSTABILITY          ISTABL         OFF         [  0]    ***   
       INCORE               INCORE         OFF         [  0]    ***   
       INPUT_MRCC           IMRCC          ON          [  1]    ***   
       INTEGRALS            INTTYP         VMOL        [  1]    ***   
       JODA_PRINT           IJPRNT              0               ***   
       KEYWORD_OUT          IDMPKW         NO          [  0]    ***   
       LINDEP_TOL           ILINDP              8               ***   
       LINEQ_CONV           IZTACN          10D-  7           cycles  
       LINEQ_EXPOR          ILMAXD              5               ***   
       LINEQ_MAXCY          ILMAXC            100               ***   
       LINEQ_TYPE           ILTYPE         DIIS        [  1]    ***   
       LOCK_ORBOCC          ILOCOC         OFF         [  0]    ***   
       MEMORY_SIZE          IMEMSZ         500000000           words  
       MEM_UNIT             IMEMU          INTEGERWORDS[  0]    ***   
       MRCC                 IMRCCC         OFF         [  0]    ***   
       MULTIPLICTY          IMULTP              1               ***   
       NACOUPLING           IVCOUP         OFF         [  0]    ***   
       NEGEVAL              IDIE           ABORT       [  0]    ***   
       NEWNORM              INEWNO         OFF         [  0]    ***   
       NON-HF               INONHF         OFF         [  0]    ***   
       NTOP_TAMP            ITOPT2             15               ***   
       NUC_MODEL            INUCMO         POINT       [  0]    ***   
       OCCUPATION           IOCCU   ESTIMATED BY SCF 
       OPEN-SHELL           IOPEN          SPIN-ORBITAL[  0]    ***   
       OPTVIB               IOPTVB         OFF         [  0]    ***   
       ORBITALS             IORBTP         STANDARD    [  0]    ***   
       PARALLEL             IPARAL         ON          [  1]    ***   
       PARA_INT             IPINTS         ON          [  1]    ***   
       PARA_PRINT           IPPRIN              0               ***   
       PERT_ORB             IPTORB         STANDARD    [  0]    ***   
       POINTS               IGRDFD              0               ***   
       PRINT                IPRNT               0               ***   
       PROPS                IPROPS         OFF         [  0]    ***   
       PROP_INTEGR          IINTYP         INTERNAL    [  0]    ***   
       PSI                  IPSI           OFF         [  0]    ***   
       QC_ALG               IQCALG         FLM         [  0]    ***   
       QC_LINALG            IQCLIN         TRIDIAG     [  2]    ***   
       QC_MAXCYC            IQCMAX          10D-100           cycles  
       QC_MAXSCFCY          IQCMSC          10D- 15           cycles  
       QC_RTRUST            IQCRTR          10D-  0           x 10-3  
       QC_SKIPSCF           IQCSKI         OFF         [  0]    ***   
       QC_START             IQCSTA          10D-  1             ***   
       QRHFGUESS            IQGUES         OFF         [  0]    ***   
       QUARTIC              IQUART         OFF         [  0]    ***   
       RAMAN_INT            IRAMIN         OFF         [  0]    ***   
       RAMAN_ORB            IRAMRE         UNRELAXED   [  0]    ***   
       RDO                  IRDOFM         ON          [  1]    ***   
       REDUCE_REPR          REDREP         Ir          [  0]    ***   
       REFERENCE            IREFNC         RHF         [  0]    ***   
       RELATIVIST           IRELAT         OFF         [  0]    ***   
       RELAX_DENS           IRDENS         ON          [  1]    ***   
       RESET_FLAGS          IRESET         OFF         [  0]    ***   
       RESTART_CC           ICCRES         OFF         [  0]    ***   
       ROT_EVEC             ROTVEC              0               ***   
       SAVE_INTS            ISVINT         OFF         [  0]    ***   
       SCALE_ON             ISTCRT              0               ***   
       SCF_CONV             ISCFCV          10D- 10             ***   
       SCF_DAMPING          IDAMP               0             x 10-3  
       SCF_EXPORDE          IRPPOR              6               ***   
       SCF_EXPSTAR          IRPPLS              8               ***   
       SCF_EXTRAPO          IRPP           ON          [  1]    ***   
       SCF_MAXCYC           ISCFCY            150              cycles 
       SCF_NOSTOP           ISCFST         OFF         [  0]    ***   
       SCF_PRINT            ISCFPR              0               ***   
       SCF_PROG             ISCFPR         SCF         [  0]    ***   
       SD_FIELD             IFINSD              0             x 10-6  
       SOPERT               IPERSO         OFF         [  0]    ***   
       SPHERICAL            IDFGHI         ON          [  1]    ***   
       SPINORBIT            ISOCAL         OFF         [  0]    ***   
       SPINROTATIO          ISRCON         OFF         [  0]    ***   
       SPIN_FLIP            ISPFLP         OFF         [  0]    ***   
       SPIN_ORBIT           ISPORB         OFF         [  0]    ***   
       SPIN_SCAL            ISCSMP         OFF         [  0]    ***   
       STEEPSCALE           ISTPSC              1000          x 10-3  
       SUBGROUP             ISUBGP         DEFAULT     [  0]    ***   
       SUBGRPAXIS           ISBXYZ         X           [  0]    ***   
       SYMMETRY             ISYM           ON          [  0]    ***   
       SYM_CHECK            ISYMCK         OVERRIDE    [  1]    ***   
       T3_EXTRAPOL          IT3EXT         OFF         [  0]    ***   
       T4_EXTRAPOL          IT4EXP         OFF         [  0]    ***   
       TAMP_SUM             IEVERY              5               ***   
       TESTSUITE            ITESTS         OFF         [  0]    ***   
       THERMOCH             ITHERM         OFF         [  0]    ***   
       TOL_CHOLESK          ITOLCH          10D-  4             ***   
       TRANGRAD             IRESRM         OFF         [  0]    ***   
       TRANS_INV            ITRAIN         IGNORE      [  1]    ***   
       TREAT_PERT           ITREAT         SIMULTANEOUS[  0]    ***   
       TRIP_ALGORI          ITRALG         NORMAL      [  0]    ***   
       UIJ_THRESHO          IUIJTH              1               ***   
       UNITS                IUNITS         ANGSTROM    [  0]    ***   
       UNOS                 IUNOS          OFF         [  0]    ***   
       UPDATE_HESS          IHUPDT         ON          [  1]    ***   
       VIBPHASE             ISETPH         STANDARD    [  0]    ***   
       VIBRATION            IVIB           ANALYTIC    [  1]    ***   
       VIB_ALGORIT          IGEALG         STANDARD    [  0]    ***   
       VNATORB              IVNORB         OFF         [  0]    ***   
       VTRAN                IVTRAN         FULL/PARTIAL[  0]    ***   
       XFIELD               IXEFLD              0             x 10-6  
       XFORM_TOL            IXFTOL          10D- 11             ***   
       YFIELD               IYEFLD              0             x 10-6  
       ZFIELD               IZEFLD              0             x 10-6  
       ZSCALE_EXP           IZEXPS         OFF         [  0]    ***   
    -------------------------------------------------------------------
   3 entries found in Z-matrix 
   Job Title : Hypochlorous acid DBOC calculation                                              
   There are  3 unique internal coordinates.
   Of these,  0 will be optimized.
   User supplied Z-matrix: 
--------------------------------------------------------------------------------
       SYMBOL    BOND      LENGTH    ANGLE     ANGLE     DIHED     ANGLE
                  TO      (ANGST)    WRT      (DEG)      WRT      (DEG)
--------------------------------------------------------------------------------
        O    
        H          1         ROH  
        CL         1         ROCL       2        A    
                  *Initial values for internal coordinates* 
                      Name             Value
                        ROH             1.0000000000
                        ROCL            1.6830000000
                        A             107.0000000000
--------------------------------------------------------------------------------
  read isotopes from ZMAT file 
   Rotational constants (in cm-1): 
          0.4864321275             0.4986031461            19.9273863609
   Rotational constants (in MHz): 
      14582.8703594672         14947.7483674806        597408.0975603326
********************************************************************************
   The full molecular point group is C s .
   The largest Abelian subgroup of the full molecular point group is C s .
   The computational point group is C s .
********************************************************************************
--------------------------------------------------------------------------------
   Analysis of internal coordinates specified by Z-matrix 
--------------------------------------------------------------------------------
   *The nuclear repulsion energy is   51.094214043195393 a.u.
   *There are   3 degrees of freedom within the tot. symm. molecular subspace.
   *Z-matrix requests optimization of   0 coordinates.
   *The optimization is constrained.
   *The following   3 parameters can have non-zero 
    derivatives within the totally symmetric subspace:
             A    [ 3]  ROH  [ 1]  ROCL [ 2]
   *The following   0 parameters are to be optimized:

   *The following coordinates must be varied in an  unconstrained optimization.
             A    [ 3]  ROH  [ 1]  ROCL [ 2]
--------------------------------------------------------------------------------


 ----------------------------------------------------------------
         Coordinates used in calculation (QCOMP) 
 ----------------------------------------------------------------
 Z-matrix   Atomic            Coordinates (in bohr)
  Symbol    Number           X              Y              Z
 ----------------------------------------------------------------
     O         8        -2.16476201     0.12506113     0.00000000
     H         1        -2.79291057    -1.65721150     0.00000000
     CL       17         1.01282387    -0.00893155     0.00000000
 ----------------------------------------------------------------
 
   Interatomic distance matrix (Angstroms) 
 
                 O             H             CL   
                [ 1]        [ 2]        [ 3]
  O    [ 1]     0.00000
  H    [ 2]     1.00000     0.00000
  CL   [ 3]     1.68300     2.19468     0.00000
 rotcon2
   Rotational constants (in cm-1): 
         19.9273863609             0.4986031461             0.4864321275
   Rotational constants (in MHz): 
     597408.0975603340         14947.7483674806         14582.8703594672
  ECPDATA file not present.   Using default ECPDATA. 
  @GTFLGS-I, Hessian will be transformed to curvilinear coordinates.
  There are  157 basis functions.
 @CHECKOUT-I, Total execution time (CPU/WALL):        0.21/       0.29 seconds.
--executable xjoda finished with status     0 in        0.33 seconds (walltime).
 --invoking executable--
/home/asmola/.local/bin/xvmol
 SERIAL VERSION OF MOLECULE STARTED
********************************************************************************
                    INPUT FROM MOL FILE
********************************************************************************
INTGRL        1    0    1    0    0    0    0    0    0                         
         *** CFOUR Program System (Release V0.1) ***                            
Hypochlorous acid DBOC calculation                                              
    3    1 Z          0.10E-08              0    0                              
   9999.00      3.00                                                            
          8.00000000    1    4    1    1    1    1                              
O #1  -2.164762008116025   0.125061126760855   0.000000000000000                
   13    7                                                                      
   15330.0000000000       5.080000000000000E-004 -1.150000000000000E-004        
  0.000000000000000E+000  0.000000000000000E+000  0.000000000000000E+000        
  0.000000000000000E+000  0.000000000000000E+000                                
   2299.00000000000       3.929000000000000E-003 -8.950000000000000E-004        
  0.000000000000000E+000  0.000000000000000E+000  0.000000000000000E+000        
  0.000000000000000E+000  0.000000000000000E+000                                
   522.400000000000       2.024300000000000E-002 -4.636000000000000E-003        
  0.000000000000000E+000  0.000000000000000E+000  0.000000000000000E+000        
  0.000000000000000E+000  0.000000000000000E+000                                
   147.300000000000       7.918100000000000E-002 -1.872400000000000E-002        
  0.000000000000000E+000  0.000000000000000E+000  0.000000000000000E+000        
  0.000000000000000E+000  0.000000000000000E+000                                
   47.5500000000000       0.230687000000000      -5.846300000000000E-002        
  0.000000000000000E+000  0.000000000000000E+000  0.000000000000000E+000        
  0.000000000000000E+000  0.000000000000000E+000                                
   16.7600000000000       0.433118000000000      -0.136463000000000             
  0.000000000000000E+000  0.000000000000000E+000  0.000000000000000E+000        
  0.000000000000000E+000  0.000000000000000E+000                                
   6.20700000000000       0.350260000000000      -0.175740000000000             
  0.000000000000000E+000  0.000000000000000E+000  0.000000000000000E+000        
  0.000000000000000E+000  0.000000000000000E+000                                
   1.75200000000000       4.272800000000000E-002  0.160934000000000             
   1.00000000000000       0.000000000000000E+000  0.000000000000000E+000        
  0.000000000000000E+000  0.000000000000000E+000                                
  0.688200000000000      -8.154000000000000E-003  0.603418000000000             
  0.000000000000000E+000  0.000000000000000E+000  0.000000000000000E+000        
  0.000000000000000E+000  0.000000000000000E+000                                
  0.238400000000000       2.381000000000000E-003  0.378765000000000             
  0.000000000000000E+000   1.00000000000000       0.000000000000000E+000        
  0.000000000000000E+000  0.000000000000000E+000                                
   7.84500000000000       0.000000000000000E+000  0.000000000000000E+000        
  0.000000000000000E+000  0.000000000000000E+000   1.00000000000000             
  0.000000000000000E+000  0.000000000000000E+000                                
   21.0320000000000       0.000000000000000E+000  0.000000000000000E+000        
  0.000000000000000E+000  0.000000000000000E+000  0.000000000000000E+000        
   1.00000000000000       0.000000000000000E+000                                
  7.376000000000001E-002  0.000000000000000E+000  0.000000000000000E+000        
  0.000000000000000E+000  0.000000000000000E+000  0.000000000000000E+000        
  0.000000000000000E+000   1.00000000000000                                     
    8    6                                                                      
   34.4600000000000       1.592800000000000E-002  0.000000000000000E+000        
  0.000000000000000E+000  0.000000000000000E+000  0.000000000000000E+000        
  0.000000000000000E+000                                                        
   7.74900000000000       9.974000000000000E-002  0.000000000000000E+000        
  0.000000000000000E+000  0.000000000000000E+000  0.000000000000000E+000        
  0.000000000000000E+000                                                        
   2.28000000000000       0.310492000000000       0.000000000000000E+000        
  0.000000000000000E+000  0.000000000000000E+000  0.000000000000000E+000        
  0.000000000000000E+000                                                        
  0.715600000000000       0.491026000000000        1.00000000000000             
  0.000000000000000E+000  0.000000000000000E+000  0.000000000000000E+000        
  0.000000000000000E+000                                                        
  0.214000000000000       0.336337000000000       0.000000000000000E+000        
   1.00000000000000       0.000000000000000E+000  0.000000000000000E+000        
  0.000000000000000E+000                                                        
   15.1590000000000       0.000000000000000E+000  0.000000000000000E+000        
  0.000000000000000E+000   1.00000000000000       0.000000000000000E+000        
  0.000000000000000E+000                                                        
   57.4370000000000       0.000000000000000E+000  0.000000000000000E+000        
  0.000000000000000E+000  0.000000000000000E+000   1.00000000000000             
  0.000000000000000E+000                                                        
  5.974000000000000E-002  0.000000000000000E+000  0.000000000000000E+000        
  0.000000000000000E+000  0.000000000000000E+000  0.000000000000000E+000        
   1.00000000000000                                                             
    4    4                                                                      
   2.31400000000000        1.00000000000000       0.000000000000000E+000        
  0.000000000000000E+000  0.000000000000000E+000                                
  0.645000000000000       0.000000000000000E+000   1.00000000000000             
  0.000000000000000E+000  0.000000000000000E+000                                
   15.8580000000000       0.000000000000000E+000  0.000000000000000E+000        
   1.00000000000000       0.000000000000000E+000                                
  0.214000000000000       0.000000000000000E+000  0.000000000000000E+000        
  0.000000000000000E+000   1.00000000000000                                     
    2    2                                                                      
   1.42800000000000        1.00000000000000       0.000000000000000E+000        
  0.500000000000000       0.000000000000000E+000   1.00000000000000             
          1.00000000    1    3    1    1    1                                   
H #2  -2.792910573489028  -1.657211496250149   0.000000000000000                
    6    4                                                                      
   33.8700000000000       6.068000000000000E-003  0.000000000000000E+000        
  0.000000000000000E+000  0.000000000000000E+000                                
   5.09500000000000       4.530800000000000E-002  0.000000000000000E+000        
  0.000000000000000E+000  0.000000000000000E+000                                
   1.15900000000000       0.202822000000000       0.000000000000000E+000        
  0.000000000000000E+000  0.000000000000000E+000                                
  0.325800000000000       0.503903000000000        1.00000000000000             
  0.000000000000000E+000  0.000000000000000E+000                                
  0.102700000000000       0.383421000000000       0.000000000000000E+000        
   1.00000000000000       0.000000000000000E+000                                
  2.526000000000000E-002  0.000000000000000E+000  0.000000000000000E+000        
  0.000000000000000E+000   1.00000000000000                                     
    3    3                                                                      
   1.40700000000000        1.00000000000000       0.000000000000000E+000        
  0.000000000000000E+000                                                        
  0.388000000000000       0.000000000000000E+000   1.00000000000000             
  0.000000000000000E+000                                                        
  0.102000000000000       0.000000000000000E+000  0.000000000000000E+000        
   1.00000000000000                                                             
    2    2                                                                      
   1.05700000000000        1.00000000000000       0.000000000000000E+000        
  0.247000000000000       0.000000000000000E+000   1.00000000000000             
         17.00000000    1    4    1    1    1    1                              
CL#3   1.012823874353474  -0.008931550116732   0.000000000000000                
   18    8                                                                      
   456100.000000000       4.930000000000000E-005 -1.380000000000000E-005        
  4.200000000000000E-006  0.000000000000000E+000  0.000000000000000E+000        
  0.000000000000000E+000  0.000000000000000E+000  0.000000000000000E+000        
   68330.0000000000       3.830000000000000E-004 -1.073000000000000E-004        
  3.240000000000000E-005  0.000000000000000E+000  0.000000000000000E+000        
  0.000000000000000E+000  0.000000000000000E+000  0.000000000000000E+000        
   15550.0000000000       2.008500000000000E-003 -5.651000000000000E-004        
  1.711000000000000E-004  0.000000000000000E+000  0.000000000000000E+000        
  0.000000000000000E+000  0.000000000000000E+000  0.000000000000000E+000        
   4405.00000000000       8.385600000000000E-003 -2.361400000000000E-003        
  7.142000000000000E-004  0.000000000000000E+000  0.000000000000000E+000        
  0.000000000000000E+000  0.000000000000000E+000  0.000000000000000E+000        
   1439.00000000000       2.947030000000000E-002 -8.458900000000000E-003        
  2.567000000000000E-003  0.000000000000000E+000  0.000000000000000E+000        
  0.000000000000000E+000  0.000000000000000E+000  0.000000000000000E+000        
   520.400000000000       8.783249999999999E-002 -2.596380000000000E-002        
  7.885500000000000E-003  0.000000000000000E+000  0.000000000000000E+000        
  0.000000000000000E+000  0.000000000000000E+000  0.000000000000000E+000        
   203.100000000000       0.211473000000000      -6.863619999999999E-002        
  2.108670000000000E-002  0.000000000000000E+000  0.000000000000000E+000        
  0.000000000000000E+000  0.000000000000000E+000  0.000000000000000E+000        
   83.9600000000000       0.365364000000000      -0.141874000000000             
  4.422640000000000E-002  0.000000000000000E+000  0.000000000000000E+000        
  0.000000000000000E+000  0.000000000000000E+000  0.000000000000000E+000        
   36.2000000000000       0.340884000000000      -0.199319000000000             
  6.516700000000000E-002  0.000000000000000E+000  0.000000000000000E+000        
  0.000000000000000E+000  0.000000000000000E+000  0.000000000000000E+000        
   15.8300000000000       0.102133000000000      -1.956620000000000E-002        
  6.030100000000000E-003  0.000000000000000E+000  0.000000000000000E+000        
  0.000000000000000E+000  0.000000000000000E+000  0.000000000000000E+000        
   6.33400000000000       3.116800000000000E-003  0.499741000000000             
 -0.206495000000000       0.000000000000000E+000  0.000000000000000E+000        
  0.000000000000000E+000  0.000000000000000E+000  0.000000000000000E+000        
   2.69400000000000       1.057500000000000E-003  0.563736000000000             
 -0.405871000000000       0.000000000000000E+000  0.000000000000000E+000        
  0.000000000000000E+000  0.000000000000000E+000  0.000000000000000E+000        
  0.976800000000000      -3.780000000000000E-004  7.903250000000001E-002        
  7.595580000000000E-002   1.00000000000000       0.000000000000000E+000        
  0.000000000000000E+000  0.000000000000000E+000  0.000000000000000E+000        
  0.431300000000000       1.561000000000000E-004 -8.350900000000000E-003        
  0.725661000000000       0.000000000000000E+000  0.000000000000000E+000        
  0.000000000000000E+000  0.000000000000000E+000  0.000000000000000E+000        
  0.162500000000000      -5.140000000000000E-005  2.324600000000000E-003        
  0.394423000000000       0.000000000000000E+000   1.00000000000000             
  0.000000000000000E+000  0.000000000000000E+000  0.000000000000000E+000        
   15.0640000000000       0.000000000000000E+000  0.000000000000000E+000        
  0.000000000000000E+000  0.000000000000000E+000  0.000000000000000E+000        
   1.00000000000000       0.000000000000000E+000  0.000000000000000E+000        
   2.87400000000000       0.000000000000000E+000  0.000000000000000E+000        
  0.000000000000000E+000  0.000000000000000E+000  0.000000000000000E+000        
  0.000000000000000E+000   1.00000000000000       0.000000000000000E+000        
  5.910000000000000E-002  0.000000000000000E+000  0.000000000000000E+000        
  0.000000000000000E+000  0.000000000000000E+000  0.000000000000000E+000        
  0.000000000000000E+000  0.000000000000000E+000   1.00000000000000             
   12    7                                                                      
   663.300000000000       2.404500000000000E-003 -6.521000000000000E-004        
  0.000000000000000E+000  0.000000000000000E+000  0.000000000000000E+000        
  0.000000000000000E+000  0.000000000000000E+000                                
   156.800000000000       1.921480000000000E-002 -5.194500000000000E-003        
  0.000000000000000E+000  0.000000000000000E+000  0.000000000000000E+000        
  0.000000000000000E+000  0.000000000000000E+000                                
   49.9800000000000       8.850970000000000E-002 -2.469380000000000E-002        
  0.000000000000000E+000  0.000000000000000E+000  0.000000000000000E+000        
  0.000000000000000E+000  0.000000000000000E+000                                
   18.4200000000000       0.256020000000000      -7.281670000000000E-002        
  0.000000000000000E+000  0.000000000000000E+000  0.000000000000000E+000        
  0.000000000000000E+000  0.000000000000000E+000                                
   7.24000000000000       0.436927000000000      -0.134030000000000             
  0.000000000000000E+000  0.000000000000000E+000  0.000000000000000E+000        
  0.000000000000000E+000  0.000000000000000E+000                                
   2.92200000000000       0.350334000000000      -9.477420000000000E-002        
  0.000000000000000E+000  0.000000000000000E+000  0.000000000000000E+000        
  0.000000000000000E+000  0.000000000000000E+000                                
   1.02200000000000       5.854950000000000E-002  0.262289000000000             
   1.00000000000000       0.000000000000000E+000  0.000000000000000E+000        
  0.000000000000000E+000  0.000000000000000E+000                                
  0.381800000000000      -4.584200000000000E-003  0.564667000000000             
  0.000000000000000E+000  0.000000000000000E+000  0.000000000000000E+000        
  0.000000000000000E+000  0.000000000000000E+000                                
  0.130100000000000       2.269700000000000E-003  0.341250000000000             
  0.000000000000000E+000   1.00000000000000       0.000000000000000E+000        
  0.000000000000000E+000  0.000000000000000E+000                                
   9.48000000000000       0.000000000000000E+000  0.000000000000000E+000        
  0.000000000000000E+000  0.000000000000000E+000   1.00000000000000             
  0.000000000000000E+000  0.000000000000000E+000                                
   3.66800000000000       0.000000000000000E+000  0.000000000000000E+000        
  0.000000000000000E+000  0.000000000000000E+000  0.000000000000000E+000        
   1.00000000000000       0.000000000000000E+000                                
  4.190000000000000E-002  0.000000000000000E+000  0.000000000000000E+000        
  0.000000000000000E+000  0.000000000000000E+000  0.000000000000000E+000        
  0.000000000000000E+000   1.00000000000000                                     
    5    5                                                                      
   1.04600000000000        1.00000000000000       0.000000000000000E+000        
  0.000000000000000E+000  0.000000000000000E+000  0.000000000000000E+000        
  0.344000000000000       0.000000000000000E+000   1.00000000000000             
  0.000000000000000E+000  0.000000000000000E+000  0.000000000000000E+000        
   17.9570000000000       0.000000000000000E+000  0.000000000000000E+000        
   1.00000000000000       0.000000000000000E+000  0.000000000000000E+000        
   5.76000000000000       0.000000000000000E+000  0.000000000000000E+000        
  0.000000000000000E+000   1.00000000000000       0.000000000000000E+000        
  0.135000000000000       0.000000000000000E+000  0.000000000000000E+000        
  0.000000000000000E+000  0.000000000000000E+000   1.00000000000000             
    3    3                                                                      
  0.706000000000000        1.00000000000000       0.000000000000000E+000        
  0.000000000000000E+000                                                        
   11.7790000000000       0.000000000000000E+000   1.00000000000000             
  0.000000000000000E+000                                                        
  0.312000000000000       0.000000000000000E+000  0.000000000000000E+000        
   1.00000000000000                                                             
FINISH                                                                          
 
********************************************************************************
 ONE- AND TWO-ELECTRON INTEGRALS OVER SYMMETRY-ADAPTED AOS ARE CALCULATED.

  SPHERICAL HARMONICS ARE USED.
  
  INTEGRALS LESS THAN  0.10E-13 ARE NEGLECTED.

  NUCLEAR REPULSION ENERGY :   51.0942140432 A.U.
  @MOLECU-I, ONE ELECTRON INTEGRALS (CPU/WALL):        0.04/       0.06 SECONDS.
  @TWOEL-I,   14244024 INTEGRALS OF SYMMETRY TYPE  I I I I
  @TWOEL-I,   13480448 INTEGRALS OF SYMMETRY TYPE  I J I J
  @TWOEL-I,    6952893 INTEGRALS OF SYMMETRY TYPE  I I J J
  @TWOEL-I, TOTAL NUMBER OF 2-E INTEGRALS   34677365.
  @MOLECU-I, TWO ELECTRON INTEGRALS (CPU/WALL):       55.09/       8.96 SECONDS.
 @CHECKOUT-I, Total execution time (CPU/WALL):       55.15/       9.03 seconds.

Running with 14 threads/proc

--executable xvmol finished with status     0 in        9.16 seconds (walltime).
 --invoking executable--
/home/asmola/.local/bin/xvmol2ja
 @GETMEM-I,  Allocated    3814 MB of main memory.
 @CHECKOUT-I, Total execution time (CPU/WALL):        0.09/       0.03 seconds.
--executable xvmol2ja finished with status     0 in        0.07 seconds (walltime).
 --invoking executable--
/home/asmola/.local/bin/xvscf
  There are  157 functions in the AO basis.

  There are 2 irreducible representations.

       Irrep        # of functions
         1                104
         2                 53


  Parameters for SCF calculation: 
        SCF reference function:  RHF  
  Maximum number of iterations:  150
     Full symmetry point group: C s 
     Computational point group: C s 
        Initial density matrix: MOREAD                 
     SCF convergence tolerance: 10**(-10)
  DIIS convergence acceleration:  ON
          Latest start for DIIS:   8
                     DIIS order:   6

  Memory information:    1209746 words required.
  Fock matrices are constructed from AO integral file.
 @GETMEM-I,  Allocated       9 MB of main memory.
  Initialization and symmetry analysis required      0.002 seconds.

  @INITGES-I, Occupancies from core Hamiltonian:

          Alpha population by irrep:  10    3
           Beta population by irrep:  10    3


 total no. of electrons in initial guess :  0.000000000000000E+000
  --------------------------------------------------------------------
  Iteration         Total Energy            Largest Density Difference
  --------------------------------------------------------------------
       0            51.094214043195393              0.0000000000D+00
   current occupation vector 
    10  3
    10  3
       1          -365.310034889171504              0.1325963140D+02
   current occupation vector 
    10  3
    10  3
       2          -339.043497506385336              0.1324449527D+02
   current occupation vector 
    10  3
    10  3
       3          -421.192556630815488              0.1074206947D+02
   current occupation vector 
    10  3
    10  3
       4          -337.028401291051921              0.1074577324D+02
   current occupation vector 
    10  3
    10  3
       5          -420.995450549483451              0.1069459668D+02
   current occupation vector 
    10  3
    10  3
       6          -336.959744469011127              0.1069449947D+02
   current occupation vector 
    10  3
    10  3
       7          -420.983302690204880              0.1069147351D+02
   current occupation vector 
    10  3
    10  3
       8          -336.955970013027809              0.1069146566D+02
   current occupation vector 
    10  3
    10  3
       9          -446.158957406236993              0.8250279682D+01
   current occupation vector 
    10  3
    10  3
      10          -467.146582906590083              0.2307935759D+01
   current occupation vector 
    10  3
    10  3
      11          -476.264974299308733              0.1160917555D+01
   current occupation vector 
    10  3
    10  3
      12          -477.604203359799953              0.1837313274D+00
   current occupation vector 
    10  3
    10  3
      13          -479.504034001073705              0.2591691477D+00
   current occupation vector 
    10  3
    10  3
      14          -488.100966762900043              0.1088213635D+01
   current occupation vector 
    10  3
    10  3
      15          -507.335679237388831              0.7556506370D+01
   current occupation vector 
    10  3
    10  3
      16          -524.094675579113414              0.7555040879D+01
   current occupation vector 
    11  2
    11  2
      17          -527.758582969379972              0.3968883181D+01
   current occupation vector 
    11  2
    11  2
      18          -533.782210192909019              0.2807950288D+01
   current occupation vector 
    10  3
    10  3
      19          -534.687163982377115              0.7329013989D+00
   current occupation vector 
    10  3
    10  3
      20          -534.899375084299209              0.3149265284D+00
   current occupation vector 
    10  3
    10  3
      21          -534.919543161789875              0.1763463456D+00
   current occupation vector 
    10  3
    10  3
      22          -534.921292973678533              0.3654893873D-01
   current occupation vector 
    10  3
    10  3
      23          -534.921768536112495              0.2763597835D-01
   current occupation vector 
    10  3
    10  3
      24          -534.921822031754346              0.9299356511D-02
   current occupation vector 
    10  3
    10  3
      25          -534.921831862235877              0.3985566877D-02
   current occupation vector 
    10  3
    10  3
      26          -534.921832889595294              0.1320545242D-02
   current occupation vector 
    10  3
    10  3
      27          -534.921833026011882              0.4998618898D-03
   current occupation vector 
    10  3
    10  3
      28          -534.921833054941089              0.3193412625D-03
   current occupation vector 
    10  3
    10  3
      29          -534.921833055503384              0.3389152759D-04
   current occupation vector 
    10  3
    10  3
      30          -534.921833055540787              0.1236547090D-04
   current occupation vector 
    10  3
    10  3
      31          -534.921833055548632              0.1553218749D-05
   current occupation vector 
    10  3
    10  3
      32          -534.921833055543175              0.7480057589D-06
   current occupation vector 
    10  3
    10  3
      33          -534.921833055550564              0.3601084636D-06
   current occupation vector 
    10  3
    10  3
      34          -534.921833055542152              0.1058443758D-06
   current occupation vector 
    10  3
    10  3
      35          -534.921833055542379              0.4388987239D-07
   current occupation vector 
    10  3
    10  3
      36          -534.921833055540446              0.1913626009D-07
   current occupation vector 
    10  3
    10  3
      37          -534.921833055543402              0.1059828346D-07
   current occupation vector 
    10  3
    10  3
      38          -534.921833055543743              0.1646477940D-08
   current occupation vector 
    10  3
    10  3
      39          -534.921833055543630              0.1258620097D-08
   current occupation vector 
    10  3
    10  3
      40          -534.921833055540787              0.1202736799D-09
   current occupation vector 
    10  3
    10  3

  SCF has converged.

 Density matrix saved to file den.dat
 total electron number:   26.0000000000001     
     E(SCF)=      -534.921833055544084              0.4952616095D-10

  Eigenvector printing suppressed.

 @PUTMOS-I, Writing converged MOs to NEWMOS. 
 @PUTMOS-I, Symmetry   1 Full Blocks 26 Partial Blocksize   0
 @PUTMOS-I, Symmetry   2 Full Blocks 13 Partial Blocksize   1
 @PUTFOCK-I, Writing converged Fock matrix to NEWFOCK. 
 @PUTFOCK-I, Symmetry   1 Full Blocks 26 Partial Blocksize   0
 @PUTFOCK-I, Symmetry   2 Full Blocks 13 Partial Blocksize   1


 
  ORBITAL EIGENVALUES (ALPHA)  (1H = 27.2113834 eV)

       MO #        E(hartree)               E(eV)           FULLSYM    COMPSYM
       ----   --------------------   --------------------   -------   ---------
    1     1        -104.8905159653       -2854.2160449558     A'        A'  (1)
    2     2         -20.6431026631        -561.7273811308     A'        A'  (1)
    3     3         -10.6104108338        -288.7239572305     A'        A'  (1)
    4     4          -8.0771377561        -219.7900922569     A'        A'  (1)
    5     5          -8.0747971700        -219.7264016703     A'        A'  (1)
    6   105          -8.0746467882        -219.7223095745     A''       A'' (2)
    7     6          -1.4053740722         -38.2421726995     A'        A'  (1)
    8     7          -1.0589521697         -28.8155534929     A'        A'  (1)
    9     8          -0.7138954319         -19.4260823049     A'        A'  (1)
   10   106          -0.6127446920         -16.6736307405     A''       A'' (2)
   11     9          -0.6034259590         -16.4200551248     A'        A'  (1)
   12    10          -0.4656376865         -12.6706456136     A'        A'  (1)
   13   107          -0.4420910639         -12.0299094386     A''       A'' (2)
  +++++++++++++++++++++++++++++++++++++++++++++++++++++++++++++++++++++++++++++
   14    11           0.0275623800           0.7500104906     A'        A'  (1)
   15    12           0.0626777349           1.7055478750     A'        A'  (1)
   16    13           0.1100659977           2.9950480623     A'        A'  (1)
   17   108           0.1161126935           3.1595870192     A''       A'' (2)
   18    14           0.1401393655           3.8133860047     A'        A'  (1)
   19    15           0.1576514549           4.2899141829     A'        A'  (1)
   20    16           0.1729909524           4.7073231311     A'        A'  (1)
   21    17           0.1764122487           4.8004213365     A'        A'  (1)
   22   109           0.1889009556           5.1402563273     A''       A'' (2)
   23    18           0.2419203798           6.5829882083     A'        A'  (1)
   24   110           0.2584392357           7.0324891277     A''       A'' (2)
   25    19           0.3053278247           8.3083925001     A'        A'  (1)
   26    20           0.3226369885           8.7793987929     A'        A'  (1)
   27   111           0.3833305983          10.4309558796     A''       A'' (2)
   28    21           0.3916059606          10.6561399360     A'        A'  (1)
   29    22           0.4132272072          11.2444839667     A'        A'  (1)
   30   112           0.4206421816          11.4462556785     A''       A'' (2)
   31    23           0.4475655073          12.1788766150     A'        A'  (1)
   32    24           0.5023426421          13.6694382327     A'        A'  (1)
   33    25           0.6061236993          16.4934643691     A'        A'  (1)
   34   113           0.6130519404          16.6819913934     A''       A'' (2)
   35    26           0.6794598684          18.4890429847     A'        A'  (1)
   36    27           0.7016216595          19.0920959797     A'        A'  (1)
   37   114           0.7129523724          19.4004203502     A''       A'' (2)
   38    28           0.7217865509          19.6408105689     A'        A'  (1)
   39   115           0.7685379972          20.9129820980     A''       A'' (2)
   40    29           0.7754419009          21.1008468702     A'        A'  (1)
   41    30           0.8702608896          23.6810027242     A'        A'  (1)
   42    31           0.8814242306          23.9847726771     A'        A'  (1)
   43   116           0.8837730543          24.0486874199     A''       A'' (2)
   44   117           0.9028250523          24.5671186402     A''       A'' (2)
   45    32           0.9124616120          24.8293427630     A'        A'  (1)
   46   118           0.9189194002          25.0050681126     A''       A'' (2)
   47    33           0.9269849359          25.2245424980     A'        A'  (1)
   48    34           0.9628349850          26.2000719291     A'        A'  (1)
   49    35           0.9925360188          27.0082781454     A'        A'  (1)
   50   119           1.0035299013          27.3074368981     A''       A'' (2)
   51    36           1.0143001707          27.6005108263     A'        A'  (1)
   52    37           1.1175393169          30.4097908163     A'        A'  (1)
   53   120           1.1286585957          30.7123617747     A''       A'' (2)
   54   121           1.2173226872          33.1250343626     A''       A'' (2)
   55    38           1.2316562739          33.5150710868     A'        A'  (1)
   56    39           1.2663262486          34.4584890609     A'        A'  (1)
   57    40           1.3330788888          36.2749207447     A'        A'  (1)
   58    41           1.3884308172          37.7811232900     A'        A'  (1)
   59   122           1.4051657681          38.2365044568     A''       A'' (2)
   60   123           1.5050249058          40.9538097378     A''       A'' (2)
   61   124           1.5361160930          41.7998439532     A''       A'' (2)
   62    42           1.5717526331          42.7695635083     A'        A'  (1)
   63    43           1.6649939116          45.3067876867     A'        A'  (1)
   64    44           1.7134778767          46.6261034508     A'        A'  (1)
   65    45           1.8188567403          49.4936081086     A'        A'  (1)
   66    46           1.9370162791          52.7088926231     A'        A'  (1)
   67   125           2.1750815949          59.1869792059     A''       A'' (2)
   68    47           2.2397607193          60.9469876572     A'        A'  (1)
   69   126           2.2469131036          61.1416139291     A''       A'' (2)
   70    48           2.2963506765          62.4868786778     A'        A'  (1)
   71    49           2.3144581983          62.9796093978     A'        A'  (1)
   72   127           2.3232891376          63.2199114714     A''       A'' (2)
   73    50           2.3714447565          64.5302924811     A'        A'  (1)
   74    51           2.4133967014          65.6718629376     A'        A'  (1)
   75   128           2.4529122890          66.7471367423     A''       A'' (2)
   76    52           2.4567196446          66.8507401561     A'        A'  (1)
   77   129           2.4771198465          67.4058578700     A''       A'' (2)
   78   130           2.4865996263          67.6638157923     A''       A'' (2)
   79    53           2.5005593016          68.0436778698     A'        A'  (1)
   80    54           2.5517549081          69.4367811467     A'        A'  (1)
   81   131           2.7377253936          74.4972953282     A''       A'' (2)
   82    55           2.7716771521          75.4211696461     A'        A'  (1)
   83   132           2.8948258049          78.7722148525     A''       A'' (2)
   84    56           2.9410807669          80.0308763597     A'        A'  (1)
   85    57           2.9686344426          80.7806499930     A'        A'  (1)
   86   133           3.0572194210          83.1911698014     A''       A'' (2)
   87    58           3.0696010775          83.5280918057     A'        A'  (1)
   88    59           3.1273163786          85.0986049925     A'        A'  (1)
   89   134           3.1312212701          85.2048624914     A''       A'' (2)
   90    60           3.2621932793          88.7687920485     A'        A'  (1)
   91    61           3.3117153490          90.1163560722     A'        A'  (1)
   92   135           3.3652264148          91.5724662008     A''       A'' (2)
   93    62           3.4694050986          94.4073123068     A'        A'  (1)
   94    63           3.6967364082         100.5933117320     A'        A'  (1)
   95    64           3.8248348471         104.0790474653     A'        A'  (1)
   96   136           4.0693069966         110.7314728581     A''       A'' (2)
   97   137           4.1001578368         111.5709668969     A''       A'' (2)
   98    65           4.3079413514         117.2250437768     A'        A'  (1)
   99   138           4.3377587052         118.0364152236     A''       A'' (2)
  100    66           4.5527582709         123.8868508360     A'        A'  (1)
  101    67           4.6496787946         126.5241923656     A'        A'  (1)
  102    68           4.8202003930         131.1643209585     A'        A'  (1)
  103    69           5.0358752944         137.0331333917     A'        A'  (1)
  104   139           5.1611824050         140.4429132200     A''       A'' (2)
  105    70           5.4230860274         147.5696731023     A'        A'  (1)
  106    71           5.7838207932         157.3857651215     A'        A'  (1)
  107    72           6.3148114895         171.8347565396     A'        A'  (1)
  108   140           6.6391516647         180.6605013995     A''       A'' (2)
  109    73           6.6943292078         182.1619586784     A'        A'  (1)
  110   141           6.7403011521         183.4129188824     A''       A'' (2)
  111    74           6.7811964360         184.5257361318     A'        A'  (1)
  112   142           7.1014299984         193.2397343739     A''       A'' (2)
  113   143           7.1465756065         194.4682088264     A''       A'' (2)
  114    75           7.1489936022         194.5340058323     A'        A'  (1)
  115    76           7.2279512414         196.6825524255     A'        A'  (1)
  116   144           7.2549082647         197.4160903229     A''       A'' (2)
  117    77           7.5602928565         205.7260275339     A'        A'  (1)
  118    78           7.8003055206         212.2571041592     A'        A'  (1)
  119    79           8.6090014704         234.2628397031     A'        A'  (1)
  120   145          10.3499620062         281.6367843274     A''       A'' (2)
  121    80          10.3503572759         281.6475401625     A'        A'  (1)
  122   146          10.3880193488         282.6723772679     A''       A'' (2)
  123    81          10.4414566783         284.1264809267     A'        A'  (1)
  124    82          10.6255242328         289.1352137256     A'        A'  (1)
  125   147          12.6800846879         345.0426459871     A''       A'' (2)
  126    83          12.7344467801         346.5219137192     A'        A'  (1)
  127    84          13.2270339901         359.9258931481     A'        A'  (1)
  128    85          18.2747005395         497.2798829008     A'        A'  (1)
  129   148          26.1693268878         712.1035872629     A''       A'' (2)
  130    86          26.6039818719         723.9311506840     A'        A'  (1)
  131    87          27.2617574333         741.8301336748     A'        A'  (1)
  132    88          29.1268412662         792.5816449252     A'        A'  (1)
  133   149          36.8954749216        1003.9769138159     A''       A'' (2)
  134   150          36.8959463709        1003.9897426053     A''       A'' (2)
  135    89          36.8959871540        1003.9908523680     A'        A'  (1)
  136    90          36.9003058012        1004.1083687343     A'        A'  (1)
  137   151          36.9046533610        1004.2266718498     A''       A'' (2)
  138    91          36.9048610683        1004.2323238541     A'        A'  (1)
  139    92          36.9087921582        1004.3392942483     A'        A'  (1)
  140   152          43.9132381176        1194.9399587534     A''       A'' (2)
  141    93          43.9386447345        1195.6313079470     A'        A'  (1)
  142   153          43.9583168654        1196.1666138429     A''       A'' (2)
  143    94          44.0970661305        1199.9421732919     A'        A'  (1)
  144    95          44.1821090214        1202.2563080011     A'        A'  (1)
  145   154          46.4829866513        1264.8663713448     A''       A'' (2)
  146    96          46.4832124600        1264.8725159136     A'        A'  (1)
  147   155          46.5076505843        1265.5375110823     A''       A'' (2)
  148    97          46.5364463987        1266.3210850285     A'        A'  (1)
  149    98          46.6251832527        1268.7357375837     A'        A'  (1)
  150   156          55.0197527307        1497.1635861283     A''       A'' (2)
  151    99          55.0794628831        1498.7883819781     A'        A'  (1)
  152   100          55.6540266910        1514.4230580437     A'        A'  (1)
  153   101         103.8619275070        2826.2267300563     A'        A'  (1)
  154   157         138.3064861455        3763.5108212110     A''       A'' (2)
  155   102         138.6161161938        3771.9362831689     A'        A'  (1)
  156   103         139.1625624294        3786.8058411923     A'        A'  (1)
  157   104         149.9172237044        4079.4550524836     A'        A'  (1)


  VSCF finished.

 @CHECKOUT-I, Total execution time (CPU/WALL):       68.52/      14.28 seconds.
--executable xvscf finished with status     0 in       14.34 seconds (walltime).
 --invoking executable--
/home/asmola/.local/bin/xvtran
 @GETMEM-I,  Allocated    3814 MB of main memory.
  Full RHF integral transformation
  Transformation of IIII integrals :
  1 pass through the AO integral file was required.
    14244024 AO integrals were read.
    15933126 MO integrals were written to HF2.
  Transformation of IIJJ integrals :
  1 pass through the AO integral file was required.
     6952893 AO integrals were read.
     7813260 MO integrals were written to HF2.
  Transformation of IJIJ integrals :
  1 pass through the AO integral file was required.
    13480448 AO integrals were read.
    15193828 MO integrals were written to HF2.
  Summary of active molecular orbitals: 
------------------------------------------------------------------------
 
  Index      Eigenvalue    Symmetry    Index      Eigenvalue    Symmetry
------------------------------------------------------------------------
     1      -104.8905160        1        80         7.5602929        1
     2       -20.6431027        1        81         7.8003055        1
     3       -10.6104108        1        82         8.6090015        1
     4        -8.0771378        1        83        10.3503573        1
     5        -8.0747972        1        84        10.4414567        1
     6        -1.4053741        1        85        10.6255242        1
     7        -1.0589522        1        86        12.7344468        1
     8        -0.7138954        1        87        13.2270340        1
     9        -0.6034260        1        88        18.2747005        1
    10        -0.4656377        1        89        26.6039819        1
    11        -8.0746468        2        90        27.2617574        1
    12        -0.6127447        2        91        29.1268413        1
    13        -0.4420911        2        92        36.8959872        1
    14         0.0275624        1        93        36.9003058        1
    15         0.0626777        1        94        36.9048611        1
    16         0.1100660        1        95        36.9087922        1
    17         0.1401394        1        96        43.9386447        1
    18         0.1576515        1        97        44.0970661        1
    19         0.1729910        1        98        44.1821090        1
    20         0.1764122        1        99        46.4832125        1
    21         0.2419204        1       100        46.5364464        1
    22         0.3053278        1       101        46.6251833        1
    23         0.3226370        1       102        55.0794629        1
    24         0.3916060        1       103        55.6540267        1
    25         0.4132272        1       104       103.8619275        1
    26         0.4475655        1       105       138.6161162        1
    27         0.5023426        1       106       139.1625624        1
    28         0.6061237        1       107       149.9172237        1
    29         0.6794599        1       108         0.1161127        2
    30         0.7016217        1       109         0.1889010        2
    31         0.7217866        1       110         0.2584392        2
    32         0.7754419        1       111         0.3833306        2
    33         0.8702609        1       112         0.4206422        2
    34         0.8814242        1       113         0.6130519        2
    35         0.9124616        1       114         0.7129524        2
    36         0.9269849        1       115         0.7685380        2
    37         0.9628350        1       116         0.8837731        2
    38         0.9925360        1       117         0.9028251        2
    39         1.0143002        1       118         0.9189194        2
    40         1.1175393        1       119         1.0035299        2
    41         1.2316563        1       120         1.1286586        2
    42         1.2663262        1       121         1.2173227        2
    43         1.3330789        1       122         1.4051658        2
    44         1.3884308        1       123         1.5050249        2
    45         1.5717526        1       124         1.5361161        2
    46         1.6649939        1       125         2.1750816        2
    47         1.7134779        1       126         2.2469131        2
    48         1.8188567        1       127         2.3232891        2
    49         1.9370163        1       128         2.4529123        2
    50         2.2397607        1       129         2.4771198        2
    51         2.2963507        1       130         2.4865996        2
    52         2.3144582        1       131         2.7377254        2
    53         2.3714448        1       132         2.8948258        2
    54         2.4133967        1       133         3.0572194        2
    55         2.4567196        1       134         3.1312213        2
    56         2.5005593        1       135         3.3652264        2
    57         2.5517549        1       136         4.0693070        2
    58         2.7716772        1       137         4.1001578        2
    59         2.9410808        1       138         4.3377587        2
    60         2.9686344        1       139         5.1611824        2
    61         3.0696011        1       140         6.6391517        2
    62         3.1273164        1       141         6.7403012        2
    63         3.2621933        1       142         7.1014300        2
    64         3.3117153        1       143         7.1465756        2
    65         3.4694051        1       144         7.2549083        2
    66         3.6967364        1       145        10.3499620        2
    67         3.8248348        1       146        10.3880193        2
    68         4.3079414        1       147        12.6800847        2
    69         4.5527583        1       148        26.1693269        2
    70         4.6496788        1       149        36.8954749        2
    71         4.8202004        1       150        36.8959464        2
    72         5.0358753        1       151        36.9046534        2
    73         5.4230860        1       152        43.9132381        2
    74         5.7838208        1       153        43.9583169        2
    75         6.3148115        1       154        46.4829867        2
    76         6.6943292        1       155        46.5076506        2
    77         6.7811964        1       156        55.0197527        2
    78         7.1489936        1       157       138.3064861        2
    79         7.2279512        1
------------------------------------------------------------------------
  -104.890515965308       -20.6431026630854       -10.6104108338156     
  -8.07713775613759       -8.07479717000588       -1.40537407221580     
  -1.05895216973403      -0.713895431898388      -0.603425959034149     
 -0.465637686526077       -8.07464678824306      -0.612744692007196     
 -0.442091063940856       2.756238003871208E-002  6.267773489895102E-002
  0.110065997686403       0.140139365523253       0.157651454901553     
  0.172990952422762       0.176412248723999       0.241920379849047     
  0.305327824681218       0.322636988492670       0.391605960615704     
  0.413227207208839       0.447565507273576       0.502342642113510     
  0.606123699286318       0.679459868428913       0.701621659548515     
  0.721786550876212       0.775441900915791       0.870260889574721     
  0.881424230607806       0.912461612038879       0.926984935943601     
  0.962834985048255       0.992536018781891        1.01430017065275     
   1.11753931688559        1.23165627392504        1.26632624862738     
   1.33307888876674        1.38843081715701        1.57175263306475     
   1.66499391158209        1.71347787671765        1.81885674025074     
   1.93701627911575        2.23976071930131        2.29635067645296     
   2.31445819832191        2.37144475650159        2.41339670138357     
   2.45671964462170        2.50055930158414        2.55175490808421     
   2.77167715207471        2.94108076694586        2.96863444263698     
   3.06960107753065        3.12731637864747        3.26219327932152     
   3.31171534896077        3.46940509856055        3.69673640819017     
   3.82483484706968        4.30794135136763        4.55275827086265     
   4.64967879455810        4.82020039299130        5.03587529444461     
   5.42308602738163        5.78382079323042        6.31481148950197     
   6.69432920776743        6.78119643603872        7.14899360215015     
   7.22795124137139        7.56029285647864        7.80030552063868     
   8.60900147043147        10.3503572759375        10.4414566782640     
   10.6255242328310        12.7344467800640        13.2270339900523     
   18.2747005395098        26.6039818719397        27.2617574332820     
   29.1268412661874        36.8959871539634        36.9003058012240     
   36.9048610683311        36.9087921582216        43.9386447345044     
   44.0970661304911        44.1821090213700        46.4832124600310     
   46.5364463986964        46.6251832526718        55.0794628830985     
   55.6540266910396        103.861927507012        138.616116193817     
   139.162562429382        149.917223704387       0.116112693452821     
  0.188900955594018       0.258439235679487       0.383330598310491     
  0.420642181627564       0.613051940365878       0.712952372358043     
  0.768537997154800       0.883773054328329       0.902825052260853     
  0.918919400201228        1.00352990131521        1.12865859567829     
   1.21732268718760        1.40516576811662        1.50502490578093     
   1.53611609298924        2.17508159492746        2.24691310362217     
   2.32328913756714        2.45291228899247        2.47711984646760     
   2.48659962625244        2.73772539356611        2.89482580486727     
   3.05721942095160        3.13122127011858        3.36522641479599     
   4.06930699664748        4.10015783677228        4.33775870518813     
   5.16118240500645        6.63915166472287        6.74030115214099     
   7.10142999836892        7.14657560653134        7.25490826471058     
   10.3499620062467        10.3880193488411        12.6800846879063     
   26.1693268877642        36.8954749215688        36.8959463709335     
   36.9046533609838        43.9132381175944        43.9583168653922     
   46.4829866512696        46.5076505842886        55.0197527307001     
   138.306486145462     
 @CHECKOUT-I, Total execution time (CPU/WALL):       33.48/      18.89 seconds.
--executable xvtran finished with status     0 in       18.97 seconds (walltime).
 --invoking executable--
/home/asmola/.local/bin/xintprc
 @GETMEM-I,  Allocated    3814 MB of main memory.
  Processing integrals for CCSD calculation.
  @GMOIAA-I, Processing MO integrals for spin case AA.
  @GMOIAA-I, Generation of integral list completed.
                      TYPE                NUMBER
                      ----               --------
                      PPPP              27524020
                      PPPH               9932000
                      PPHH                900748
                      PHPH                491140
                      PHHH                 89950
                      HHHH                  2356

                     TOTAL              38940214

  @FORMT2-I, Second-order MP correlation energies:
            ------------------------------------------------
            E(SCF)                  =   -534.921833055544 a.u.
            E2(AA)                  =     -0.107631043069 a.u.
            E2(AB)                  =     -0.631226827799 a.u.
            E2(TOT)                 =     -0.846488913936 a.u.
            Total MP2 energy        =   -535.768321969480 a.u.
            ------------------------------------------------
   Largest T2 amplitudes for spin case AB:
       _       _                 _       _                 _       _
   i   j   a   b             i   j   a   b             i   j   a   b
-----------------------------------------------------------------------------
[  9   9  15  15]-0.01999 [ 13  13 112 112]-0.01776 [  9   9  17  15] 0.01776
[  9   9  15  17] 0.01776 [  9   9  17  17]-0.01751 [  8   8  25  25]-0.01661
[ 13  13 113 113]-0.01548 [  9   9  20  15] 0.01484 [  9   9  15  20] 0.01484
[ 10  10  26  26]-0.01476 [  9   9  18  15]-0.01406 [  9   9  15  18]-0.01406
[ 13  13 116 116]-0.01404 [ 10  10 117 117]-0.01370 [  9   9  20  20]-0.01348
-----------------------------------------------------------------------------
   Norm of T2AB vector (  1799624 symmetry allowed elements):  0.3262491810.
-----------------------------------------------------------------------------
 @CHECKOUT-I, Total execution time (CPU/WALL):        7.61/       7.91 seconds.
--executable xintprc finished with status     0 in        8.17 seconds (walltime).
  calling xvcc 
 --invoking executable--
/home/asmola/.local/bin/xvcc
 @GETMEM-I,  Allocated    3814 MB of main memory.
   CCSD energy will be calculated.
   The total correlation energy is -0.846488913936 a.u.
   The total correlation energy is -0.847018628937 a.u.
  Convergence information after     1 iterations: 
  Largest element of residual vector : -0.12165831E-01.
  Largest element of DIIS residual   : -0.12165831E-01.
   The total correlation energy is -0.860934202490 a.u.
  Convergence information after     2 iterations: 
  Largest element of residual vector : -0.28977388E-02.
  Largest element of DIIS residual   : -0.26460128E-02.
   The total correlation energy is -0.860809595047 a.u.
  Convergence information after     3 iterations: 
  Largest element of residual vector : -0.19636656E-02.
  Largest element of DIIS residual   : -0.11988314E-02.
   The total correlation energy is -0.862137726831 a.u.
  Convergence information after     4 iterations: 
  Largest element of residual vector :  0.27455636E-03.
  Largest element of DIIS residual   : -0.24523025E-03.
   The total correlation energy is -0.862271299374 a.u.
  Convergence information after     5 iterations: 
  Largest element of residual vector : -0.25882592E-03.
  Largest element of DIIS residual   : -0.19678381E-03.
   The total correlation energy is -0.862272922797 a.u.
  Convergence information after     6 iterations: 
  Largest element of residual vector : -0.11736097E-03.
  Largest element of DIIS residual   : -0.90920230E-04.
   The total correlation energy is -0.862274215329 a.u.
  Convergence information after     7 iterations: 
  Largest element of residual vector : -0.85844241E-04.
  Largest element of DIIS residual   : -0.60733061E-04.
   The total correlation energy is -0.862273927091 a.u.
  Convergence information after     8 iterations: 
  Largest element of residual vector : -0.41003175E-04.
  Largest element of DIIS residual   : -0.25268625E-04.
   The total correlation energy is -0.862273741302 a.u.
  Convergence information after     9 iterations: 
  Largest element of residual vector : -0.21610715E-04.
  Largest element of DIIS residual   : -0.12094197E-04.
   The total correlation energy is -0.862274618185 a.u.
  Convergence information after    10 iterations: 
  Largest element of residual vector : -0.99410908E-05.
  Largest element of DIIS residual   : -0.48486365E-05.
   The total correlation energy is -0.862274890144 a.u.
  Convergence information after    11 iterations: 
  Largest element of residual vector : -0.28402249E-05.
  Largest element of DIIS residual   :  0.19876493E-05.
   The total correlation energy is -0.862275065707 a.u.
  Convergence information after    12 iterations: 
  Largest element of residual vector : -0.17374159E-05.
  Largest element of DIIS residual   : -0.87580648E-06.
   The total correlation energy is -0.862275134818 a.u.
  Convergence information after    13 iterations: 
  Largest element of residual vector : -0.47557481E-06.
  Largest element of DIIS residual   : -0.42716051E-06.
   The total correlation energy is -0.862275146090 a.u.
  Convergence information after    14 iterations: 
  Largest element of residual vector : -0.34482435E-06.
  Largest element of DIIS residual   : -0.22810587E-06.
   The total correlation energy is -0.862275148669 a.u.
  Convergence information after    15 iterations: 
  Largest element of residual vector : -0.15286873E-06.
  Largest element of DIIS residual   :  0.11740172E-06.
   The total correlation energy is -0.862275148970 a.u.
  Convergence information after    16 iterations: 
  Largest element of residual vector : -0.10701863E-06.
  Largest element of DIIS residual   : -0.53198307E-07.
   The total correlation energy is -0.862275149834 a.u.
  Convergence information after    17 iterations: 
  Largest element of residual vector : -0.52670998E-07.
  Largest element of DIIS residual   : -0.29650862E-07.
   The total correlation energy is -0.862275149972 a.u.
  Convergence information after    18 iterations: 
  Largest element of residual vector : -0.20028537E-07.
  Largest element of DIIS residual   : -0.12706312E-07.
   The total correlation energy is -0.862275150247 a.u.
  Convergence information after    19 iterations: 
  Largest element of residual vector : -0.12347509E-07.
  Largest element of DIIS residual   : -0.63874801E-08.
   The total correlation energy is -0.862275150421 a.u.
  Convergence information after    20 iterations: 
  Largest element of residual vector : -0.32092254E-08.
  Largest element of DIIS residual   : -0.24435548E-08.
   The total correlation energy is -0.862275150465 a.u.
  Convergence information after    21 iterations: 
  Largest element of residual vector : -0.22219149E-08.
  Largest element of DIIS residual   : -0.14032348E-08.
   The total correlation energy is -0.862275150500 a.u.
  Convergence information after    22 iterations: 
  Largest element of residual vector : -0.91734629E-09.
  Largest element of DIIS residual   : -0.76460271E-09.
   The total correlation energy is -0.862275150498 a.u.
  Convergence information after    23 iterations: 
  Largest element of residual vector : -0.62153944E-09.
  Largest element of DIIS residual   :  0.34217204E-09.
   The total correlation energy is -0.862275150500 a.u.
  Convergence information after    24 iterations: 
  Largest element of residual vector : -0.31099496E-09.
  Largest element of DIIS residual   : -0.26139627E-09.
   The total correlation energy is -0.862275150500 a.u.
  Convergence information after    25 iterations: 
  Largest element of residual vector : -0.17618037E-09.
  Largest element of DIIS residual   : -0.12608891E-09.
   The total correlation energy is -0.862275150500 a.u.
  Convergence information after    26 iterations: 
  Largest element of residual vector : -0.10901036E-09.
  Largest element of DIIS residual   : -0.72135887E-10.
   The total correlation energy is -0.862275150502 a.u.
  Convergence information after    27 iterations: 
[...]
 final tnorm  0.844251700520817     
  norm contr. I: |<0|L dT/dx|0>|^2   0.000000000000000E+000
  norm contr. II: <0|[nabla(1+L)e-T][nabla e^T]|0>  0.479536699747428     
  total norm contribution  0.479536699747428     
 oo  2.091474831937400E-003
 vv  -1.52727133256866     
 vo -2.453802862153341E-002
  Correlated perturbed 1-el contribution to DBOC  -1.54971788635825       cm**-1
  SUM_I |dc_I/dx|^2 contribution to DBOC  0.781131849199700       cm**-1
 
 
  The total diagonal Born-Oppenheimer correction (DBOC) is:      0.0083981205 a.u.
  The total diagonal Born-Oppenheimer correction (DBOC) is:       1843.174395 cm-1
 
 Total CC energy including DBOC  -535.775710085574     
 First-order density matrix is being calculated  (Symmetry block 2, perturbation   3)
 Calculation of the contributions of <pq||rs> to dI(i,j)/dx required   2.3 seconds.
 Calculation of the contributions of <pq||rs> to dI(a,b)/dx required   9.3 seconds.
 Calculation of the contributions of <pq||rs> to dI(i,a)/dx required   6.1 seconds.
 First-order Z-vector equations are solved for 1 perturbation.
 Convergence reached after  24 iterations.
        U*G(pq,rs) contribution is being calculated
             (Symmetry block 2, perturbation   3)

 CCSD contribution to force constants 

        0.0000000000        0.0000000000        0.0000000000
        0.0000000000        0.0000000000        0.0000000000
        0.0000000000        0.0000000000        0.0000000000
        0.0000000000        0.0000000000        0.0000000000
        0.0000000000        0.0000000000        0.0000000000
        0.0000000000        0.0000000000        0.0000000000
        0.0000000000        0.0000000000        0.0000000000
        0.0000000000        0.0000000000        0.0000000000
        0.0000000000        0.0000000000        0.0000000000
        0.0000000000        0.0000000000        0.0000000000
        0.0000000000        0.0000000000        0.0000000000
        0.0000000000        0.0000000000        0.0000000000
        0.0000000000        0.0000000000        0.0000000000
        0.0000000000        0.0000000000        0.0000000000
        0.0000000000        0.0000000000        0.0000000000
        0.0000000000        0.0000000000        0.0000000000
        0.0000000000        0.0000000000        0.0000000000
        0.0000000000        0.0000000000        0.0000000000
        0.0000000000        0.0000000000        0.0000000000
        0.0000000000        0.0000000000        0.0000000000
        0.0000000000        0.0000000000        0.0000000000
        0.0000000000        0.0000000000        0.0000000000
        0.0000000000        0.0000000000        0.0000000000
        0.0000000000        0.0000000000        0.0000000000
        0.0000000000        0.0000000000        0.0000000000
        0.0000000000        0.0000000000        0.0000000000
        0.0404312709        0.0784872799       -0.1189185508

 CCSD contribution to dipole derivatives 

        0.0000000000        0.0000000000        0.0000000000
        0.0000000000        0.0000000000        0.0000000000
        0.0000000000        0.0000000000        0.0000000000
        0.0000000000        0.0000000000        0.0000000000
        0.0000000000        0.0000000000        0.0000000000
        0.0000000000        0.0000000000        0.0000000000
        0.0000000000        0.0000000000        0.0000000000
        0.0000000000        0.0000000000        0.0000000000
        0.0000000000        0.0000000000        0.0121669138
 @CHECKOUT-I, Total execution time (CPU/WALL):      823.29/     162.03 seconds.
--executable xsdcc finished with status     0 in      162.16 seconds (walltime).
 --invoking executable--
/home/asmola/.local/bin/xanti
 @GETMEM-I,  Allocated    3814 MB of main memory.
 CCSD MO derivative gammas will be sorted to Mulliken order.
 @CHECKOUT-I, Total execution time (CPU/WALL):        6.20/       6.83 seconds.
--executable xanti finished with status     0 in        6.90 seconds (walltime).
 --invoking executable--
/home/asmola/.local/bin/xbcktrn
 @GETMEM-I,  Allocated    3814 MB of main memory.
 CCSD MO derivative gammas will be transformed to the AO basis.
 @CHECKOUT-I, Total execution time (CPU/WALL):       10.87/       2.04 seconds.
--executable xbcktrn finished with status     0 in        2.05 seconds (walltime).
 --invoking executable--
/home/asmola/.local/bin/xvdint
 @GETMEM-I,  Allocated    3814 MB of main memory.
 One- and two-electron integral derivatives are calculated
 for RHF-CC/MBPT hessians and dipole derivatives.
 Spherical gaussians are used.
  magnet F F
 Evaluation of 2el integral derivatives

                      Two-electron integral gradient
                      ------------------------------

                         O #1 x     0.0000000000
                         O #1 y     0.0000000000
                         H #2 x     0.0000000000
                         H #2 y     0.0000000000
                         CL#3 x     0.0000000000
                         CL#3 y     0.0000000000


 O #1       0.0000000000            0.0000000000           -0.0922024785
 H #2       0.0000000000            0.0000000000            0.0055321668
 CL#3       0.0000000000            0.0000000000            0.0866703116


 Evaluation of 2e integral derivatives required  109.35 seconds.
  contribution to Hessian
        0.0000000000        0.0000000000        0.0000000000
        0.0000000000        0.0000000000        0.0000000000
       -0.0922024785        0.0055321668        0.0866703116
 @CHECKOUT-I, Total execution time (CPU/WALL):      109.34/      20.17 seconds.
--executable xvdint finished with status     0 in       20.25 seconds (walltime).
 --invoking executable--
/home/asmola/.local/bin/xanti
 @GETMEM-I,  Allocated    3814 MB of main memory.
 CCSD MO gammas will be sorted to Mulliken order.
 @CHECKOUT-I, Total execution time (CPU/WALL):        7.03/       5.56 seconds.
--executable xanti finished with status     0 in        5.64 seconds (walltime).
 --invoking executable--
/home/asmola/.local/bin/xbcktrn
 @GETMEM-I,  Allocated    3814 MB of main memory.
 CCSD MO gammas will be transformed to the AO basis.
 @CHECKOUT-I, Total execution time (CPU/WALL):       18.99/       3.11 seconds.
--executable xbcktrn finished with status     0 in        3.15 seconds (walltime).
 --invoking executable--
/home/asmola/.local/bin/xvdint
 @GETMEM-I,  Allocated    3814 MB of main memory.
 One- and two-electron integral derivatives are calculated
 for RHF-CC/MBPT hessians and dipole derivatives.
 Spherical gaussians are used.
  magnet F F

                     Kinetic energy integral gradient
                     --------------------------------

                         O #1 x     0.0589831659
                         O #1 y    -0.5163779050
                         H #2 x     0.2811759088
                         H #2 y     0.5410974271
                         CL#3 x    -0.3401590747
                         CL#3 y    -0.0247195221


 O #1       0.0589831659           -0.5163779050            0.0000000000
 H #2       0.2811759088            0.5410974271            0.0000000000
 CL#3      -0.3401590747           -0.0247195221            0.0000000000



                   Nuclear attraction integral gradient
                   ------------------------------------

                         O #1 x   -23.5103828332
                         O #1 y     6.1593516410
                         H #2 x    -4.5315443847
                         H #2 y    -6.3497350043
                         CL#3 x    28.0419272179
                         CL#3 y     0.1903833633


 O #1     -23.5103828332            6.1593516410            0.0000000000
 H #2      -4.5315443847           -6.3497350043            0.0000000000
 CL#3      28.0419272179            0.1903833633            0.0000000000



                      Reorthonormalization gradient
                      -----------------------------

                         O #1 x     0.0000000000
                         O #1 y     0.0000000000
                         H #2 x     0.0000000000
                         H #2 y     0.0000000000
                         CL#3 x     0.0000000000
                         CL#3 y     0.0000000000


 O #1       0.0000000000            0.0000000000            0.0000000000
 H #2       0.0000000000            0.0000000000            0.0000000000
 CL#3       0.0000000000            0.0000000000            0.0000000000



                     Kinetic energy integral Hessian
                     -------------------------------


           Symmetry 1

           O #1 x      O #1 y      H #2 x      H #2 y      CL#3 x      CL#3 y

 O #1 x   -0.012209
 O #1 y    0.414905    0.151135
 H #2 x    0.377338   -0.408404   -0.378583
 H #2 y   -0.408404   -0.363703    0.420122    0.367529
 CL#3 x   -0.365129   -0.006502    0.001245   -0.011718    0.363884
 CL#3 y   -0.006502    0.212568   -0.011718   -0.003827    0.018220   -0.208741


           Symmetry 2

           O #1 z      H #2 z      CL#3 z

 O #1 z   -0.808834
 H #2 z    0.605606   -0.610277
 CL#3 z    0.203228    0.004671   -0.207899




           O #1 x      O #1 y      O #1 z      H #2 x      H #2 y      H #2 z

 O #1 x   -0.012209
 O #1 y    0.414905    0.151135
 O #1 z    0.000000    0.000000   -0.808834

 H #2 x    0.377338   -0.408404    0.000000   -0.378583
 H #2 y   -0.408404   -0.363703    0.000000    0.420122    0.367529
 H #2 z    0.000000    0.000000    0.605606    0.000000    0.000000   -0.610277

 CL#3 x   -0.365129   -0.006502    0.000000    0.001245   -0.011718    0.000000
 CL#3 y   -0.006502    0.212568    0.000000   -0.011718   -0.003827    0.000000
 CL#3 z    0.000000    0.000000    0.203228    0.000000    0.000000    0.004671


           CL#3 x      CL#3 y      CL#3 z

 CL#3 x    0.363884
 CL#3 y    0.018220   -0.208741
 CL#3 z    0.000000    0.000000   -0.207899




                   Nuclear attraction integral Hessian
                   -----------------------------------


           Symmetry 1

           O #1 x      O #1 y      H #2 x      H #2 y      CL#3 x      CL#3 y

 O #1 x   -9.428339
 O #1 y   -2.151763    9.426382
 H #2 x   -4.792189    3.110576    4.282035
 H #2 y    3.099053    0.816077   -3.903620   -0.915661
 CL#3 x   14.220528   -0.958813    0.510154    0.804567  -14.730682
 CL#3 y   -0.947290  -10.242459    0.793044    0.099584    0.154246   10.142875


           Symmetry 2

           O #1 z      H #2 z      CL#3 z

 O #1 z   16.185696
 H #2 z   -6.507446    6.954906
 CL#3 z   -9.678250   -0.447460   10.125710




           O #1 x      O #1 y      O #1 z      H #2 x      H #2 y      H #2 z

 O #1 x   -9.428339
 O #1 y   -2.151763    9.426382
 O #1 z    0.000000    0.000000   16.185696

 H #2 x   -4.792189    3.110576    0.000000    4.282035
 H #2 y    3.099053    0.816077    0.000000   -3.903620   -0.915661
 H #2 z    0.000000    0.000000   -6.507446    0.000000    0.000000    6.954906

 CL#3 x   14.220528   -0.958813    0.000000    0.510154    0.804567    0.000000
 CL#3 y   -0.947290  -10.242459    0.000000    0.793044    0.099584    0.000000
 CL#3 z    0.000000    0.000000   -9.678250    0.000000    0.000000   -0.447460


           CL#3 x      CL#3 y      CL#3 z

 CL#3 x  -14.730682
 CL#3 y    0.154246   10.142875
 CL#3 z    0.000000    0.000000   10.125710




                Highest order reorthonormalization Hessian
                ------------------------------------------


           Symmetry 1

           O #1 x      O #1 y      H #2 x      H #2 y      CL#3 x      CL#3 y

 O #1 x    0.000000
 O #1 y    0.000000    0.000000
 H #2 x    0.000000    0.000000    0.000000
 H #2 y    0.000000    0.000000    0.000000    0.000000
 CL#3 x    0.000000    0.000000    0.000000    0.000000    0.000000
 CL#3 y    0.000000    0.000000    0.000000    0.000000    0.000000    0.000000


           Symmetry 2

           O #1 z      H #2 z      CL#3 z

 O #1 z    0.000000
 H #2 z    0.000000    0.000000
 CL#3 z    0.000000    0.000000    0.000000




           O #1 x      O #1 y      O #1 z      H #2 x      H #2 y      H #2 z


           CL#3 x      CL#3 y      CL#3 z




                Electronic contributions to dipole moment
                -----------------------------------------

                               au             Debye

                    x      2.72253503      6.91999500
                    y      0.21915152      0.55702771

  Conversion factor used: 1 a.u. =   2.54174691 Debye 



   Electronic contributions to static part of dipole moment derivatives
   --------------------------------------------------------------------


                     Total dipole moment derivatives
                     -------------------------------


           Symmetry 1
                              Ex             Ey

               O #1 x    -8.89208515    -0.07577704
               O #1 y    -0.28775426    -8.80089656
               H #2 x    -0.30664399     0.12277703
               H #2 y     0.36720173    -0.33593987
               CL#3 x   -16.80127086    -0.04699999
               CL#3 y    -0.07944747   -16.86316356

           Symmetry 2
                              Ez

               O #1 z    -8.42156947
               H #2 z    -0.70109811
               CL#3 z   -16.87733242



                       Ex          Ey          Ez

      O #1    x   -8.892085   -0.075777    0.000000
      O #1    y   -0.287754   -8.800897    0.000000
      O #1    z    0.000000    0.000000   -8.421569

      H #2    x   -0.306644    0.122777    0.000000
      H #2    y    0.367202   -0.335940    0.000000
      H #2    z    0.000000    0.000000   -0.701098

      CL#3    x  -16.801271   -0.047000    0.000000
      CL#3    y   -0.079447  -16.863164    0.000000
      CL#3    z    0.000000    0.000000  -16.877332

 Evaluation of 1e integral derivatives required    1.69 seconds.
 Evaluation of 2el integral derivatives

                      Two-electron integral gradient
                      ------------------------------

                         O #1 x    10.7465168406
                         O #1 y    -2.7023192226
                         H #2 x     2.4450685086
                         H #2 y     3.0177186144
                         CL#3 x   -13.1915853493
                         CL#3 y    -0.3153993918


 O #1      10.7465168406           -2.7023192226            0.0000000000
 H #2       2.4450685086            3.0177186144            0.0000000000
 CL#3     -13.1915853493           -0.3153993918            0.0000000000


 Evaluation of 2e integral derivatives required  273.09 seconds.

                            Molecular gradient
                            ------------------

                         O #1 x    -0.0161063981
                         O #1 y     0.2613494478
                         H #2 x    -0.1537054610
                         H #2 y    -0.2852767365
                         CL#3 x     0.1698118592
                         CL#3 y     0.0239272886


 O #1      -0.0161063981            0.2613494478            0.0000000000
 H #2      -0.1537054610           -0.2852767365            0.0000000000
 CL#3       0.1698118592            0.0239272886            0.0000000000


  Molecular gradient norm 0.451E+00

                            Molecular hessian
                            -----------------


           Symmetry 1

           O #1 x      O #1 y      H #2 x      H #2 y      CL#3 x      CL#3 y

 O #1 x    3.072447
 O #1 y    2.360972    8.891533
 H #2 x   -1.258328   -4.102517    1.304121
 H #2 y   -2.560821   -8.830793    2.807426    8.365459
 CL#3 x   -1.814119    0.503077   -0.263666   -0.226719    2.077784
 CL#3 y    0.199849   -0.060740   -0.163387    0.084571   -0.036461   -0.023831


           Symmetry 2

           O #1 z      H #2 z      CL#3 z

 O #1 z   -2.145712
 H #2 z    2.281794   -2.450887
 CL#3 z   -0.136082    0.071930    0.064152




           O #1 x      O #1 y      O #1 z      H #2 x      H #2 y      H #2 z

 O #1 x    3.072447
 O #1 y    2.360972    8.891533
 O #1 z    0.000000    0.000000   -2.145712

 H #2 x   -1.258328   -4.102517    0.000000    1.304121
 H #2 y   -2.560821   -8.830793    0.000000    2.807426    8.365459
 H #2 z    0.000000    0.000000    2.281794    0.000000    0.000000   -2.450887

 CL#3 x   -1.814119    0.503077    0.000000   -0.263666   -0.226719    0.000000
 CL#3 y    0.199849   -0.060740    0.000000   -0.163387    0.084571    0.000000
 CL#3 z    0.000000    0.000000   -0.136082    0.000000    0.000000    0.071930


           CL#3 x      CL#3 y      CL#3 z

 CL#3 x    2.077784
 CL#3 y   -0.036461   -0.023831
 CL#3 z    0.000000    0.000000    0.064152




                           Total dipole moment
                           -------------------

                               au             Debye

                    x     -0.17046575     -0.43328079
                    y     -0.58940731     -1.49812421

  Conversion factor used: 1 a.u. =   2.54174691 Debye 



                     Total dipole moment derivatives
                     -------------------------------


           Symmetry 1
                              Ex             Ey

               O #1 x    -0.46261088    -0.05095005
               O #1 y    -0.15238352    -0.17094340
               H #2 x     0.24666463     0.01312150
               H #2 y     0.09508452     0.19568006
               CL#3 x     0.21594671     0.03782839
               CL#3 y     0.05729907    -0.02473667

           Symmetry 2
                              Ez

               O #1 z    -0.33921092
               H #2 z     0.32866687
               CL#3 z     0.01054413



                       Ex          Ey          Ez

      O #1    x   -0.462611   -0.050950    0.000000
      O #1    y   -0.152384   -0.170943    0.000000
      O #1    z    0.000000    0.000000   -0.339211

      H #2    x    0.246665    0.013122    0.000000
      H #2    y    0.095085    0.195680    0.000000
      H #2    z    0.000000    0.000000    0.328667

      CL#3    x    0.215947    0.037828    0.000000
      CL#3    y    0.057299   -0.024737    0.000000
      CL#3    z    0.000000    0.000000    0.010544

  Molecular gradient does not satisfy rotational invariance condition.
   rotational invariance in yz-plane :        0.0000E+00
   rotational invariance in xz-plane :        0.0000E+00
   rotational invariance in xy-plane :        -.4036E-02
 @CHECKOUT-I, Total execution time (CPU/WALL):      274.78/      39.86 seconds.
--executable xvdint finished with status     0 in       39.94 seconds (walltime).
 --invoking executable--
/home/asmola/.local/bin/xjoda
  @GTFLGS-I, Hessian will be transformed to curvilinear coordinates.
  @GTFLGS-I, Hessian will be transformed to curvilinear coordinates.
  igrd and ihes are                      0                     1
  gradient from JOBARC 
  -0.016106398127062   0.261349447833969   0.000000000000000
  -0.153705461039709  -0.285276736462182   0.000000000000000
   0.169811859166782   0.023927288628222   0.000000000000000
 
  @PROJFCM-I, Projecting force constant matrix onto totally symmetric subspace.
  Largest difference between matrix elements of symmetrized
  and unsymmetrized FCM :     0.0000000000E+00.
  read isotopes from ZMAT file 
 
  Summary of diagonal Born-Oppenheimer correction at the correlated level
  The total diagonal Born-Oppenheimer correction (DBOC) is:      0.0083981205 a.u.
  The total diagonal Born-Oppenheimer correction (DBOC) is:       1843.174395 cm-1
  The total diagonal Born-Oppenheimer correction (DBOC) is:            22.049 kJ/mole
  hellooooooo 
  readis is  F
 
 @CHECKOUT-I, Total execution time (CPU/WALL):        0.03/       0.08 seconds.
--executable xjoda finished with status     0 in        0.28 seconds (walltime).
  The final electronic energy is      -535.775710085574133 a.u. 
  This computation required                         2396.09 seconds (walltime).
