 --invoking executable--
/home/asmola/.local/bin/xjoda


   *************************************************************************
         <<<     CCCCCC     CCCCCC   |||     CCCCCC     CCCCCC   >>>
       <<<      CCC        CCC       |||    CCC        CCC         >>>
      <<<      CCC        CCC        |||   CCC        CCC            >>>
    <<<        CCC        CCC        |||   CCC        CCC              >>>
      <<<      CCC        CCC        |||   CCC        CCC            >>>
       <<<      CCC        CCC       |||    CCC        CCC         >>>
         <<<     CCCCCC     CCCCCC   |||     CCCCCC     CCCCCC   >>>
   *************************************************************************

     ****************************************************************
     * CFOUR Coupled-Cluster techniques for Computational Chemistry *
     ****************************************************************
 

   Department of Chemistry                Institut fuer Physikalische Chemie
   University of Florida                  Universitaet Mainz
   Gainesville, FL 32611, USA             D-55099 Mainz, Germany

   Department of Chemistry                Fakultaet fuer Chemie und Biowiss.
   Johns Hopkins University               Karlsruher Institut fuer Technologie
   Baltimore, MD 21218, USA               D-76131 Karlsruhe, Germany

   Department of Chemistry                Department of Physical Chemistry
   Southern Methodist University          Eotvos Lorand University
   Dallas, TX 75275, USA                  H-1053 Budapest, Hungary

 
                       Version 2.1
 
                     vincent.theory.phys.ucl.ac.uk                     
                     Fri 31 Jan 00:47:35 GMT 2025                      
                     integer*8 version is running
 
********************************************************************************
*                          Input from ZMAT file                                *
********************************************************************************
Hypochlorous acid DBOC calculation                                              
O                                                                               
H 1 ROH                                                                         
CL 1 ROCL 2 A                                                                   
                                                                                
ROH=1.800000000000001                                                           
ROCL=1.683                                                                      
A=107.0                                                                         
                                                                                
                                                                                
*CFOUR(CALC=CCSD,BASIS=AUG-PCVTZ,SCF_CONV=10                                    
CC_CONV=10,DBOC=ON,MEMORY=500000000)                                            
********************************************************************************
  @GTFLGS-I, Hessian will be transformed to curvilinear coordinates.
    -------------------------------------------------------------------
                    CFOUR Control Parameters 
    -------------------------------------------------------------------
        External           Internal           Value            Units
          Name               Name
    -------------------------------------------------------------------
       ABCDTYPE             IABCDT         STANDARD    [  0]    ***   
       ANHARMONIC           IANHAR         OFF         [  0]    ***   
       ANH_ALGORIT          IANALG         STANDARD    [  0]    ***   
       ANH_DERIVAT          IANDER         SECOND      [  1]    ***   
       ANH_MODE             ANHMOD         VIBRATION   [  0]    ***   
       ANH_STEPSIZ          ICUBST             50000          x 10-6  
       ANH_SYMMETR          IANHSM         ABELIAN     [  0]    ***   
       AO_LADDERS           IAOLAD         SINGLEPASS  [  1]    ***   
       AV_SCF               IAVSCF         OFF         [  0]    ***   
       BASIS                IBASIS         AUG-PCVTZ   [ 51]    ***   
       BOTHVECTORS          BOTHVC         OFF         [  0]    ***   
       BOX_POTENT           IPIAB          OFF         [  0]    ***   
       BREIT                IBREIT         OFF         [  0]    ***   
       BRUCK_CONV           IBRTOL          10D-  4             ***   
       BRUECKNER            IBRKNR         OFF         [  0]    ***   
       BUFFERSIZE           IBUFFS              4096            ***   
       CACHE_RECS           ICHREC             10               ***   
       CALCLEVEL            ICLLVL         CCSD        [ 10]    ***   
       CCORBOPT             ICCORB         OFF         [  0]  x 0.01  
       CC_CONV              ICCCNV          10D- 10             ***   
       CC_EXPORDER          ICCEOR              5               ***   
       CC_EXTRAPOL          ICCEXT         DIIS        [  1]    ***   
       CC_GUESS             ICCGES         MP2         [  0]    ***   
       CC_MAXCYC            ICCCYC            100              cycles 
       CC_PROGRAM           ICCPRO         VCC         [  0]    ***   
       CHARGE               ICHRGE              0               ***   
       CHOLESKY             ICHOLE         OFF         [  0]    ***   
       CIS_CONV             ICISTL              5               ***   
       COMM_SIZE            IPSIZE            ***               ***   
       CONSTANT             ICONST         OLD         [  1]    ***   
       CONTINUUM            ICONTU         NONE        [  0]    ***   
       CONTRACTION          ICNTYP         GENERAL     [  1]    ***   
       COORDINATES          ICOORD         INTERNAL    [  0]    ***   
       CPHF_CONVER          ICPHFT          10D- 16             ***   
       CPHF_MAXCYC          ICPHFC             64              cycles 
       CUBIC                ICUBIC         OFF         [  0]    ***   
       CURVILINEAR          ICURVY         ON          [  1]    ***   
       DBOC                 IDBOC          ON          [  1]    ***   
       DCT                  IDCT           OFF         [  0]    ***   
       DERIV_LEV            IDRLVL         SECOND      [  2]    ***   
       DEVMEM_SIZE          IDVMEM          50000000           MByte  
       DIAG_MRCC            IEOMST          10D-  0             ***   
       DIFF_TYPE            IDIFTY         RELAXED     [  0]    ***   
       DIRECT               IDIRCT         OFF         [  0]    ***   
       DROPMO               IDRPMO      NONE         
       ECP                  IECP           OFF         [  0]    ***   
       EIGENVECTOR          IVEC                1               ***   
       EL_ANHARM            IELANH         OFF         [  0]    ***   
       EOMFOLLOW            IEOMSR         ENERGY      [  0]    ***   
       EOMIP                IEOMIP         OFF         [  0]    ***   
       EOMLEVEL             HBARFM         SAME        [  0]    ***   
       EOM_MRCC             IMRCCE         NEW         [  1]    ***   
       EOM_NONIT            EOMNON         OFF         [  0]    ***   
       EOM_NSING            IEOMSI          10D-  0             ***   
       EOM_NSTATES          IMRCCD         DAVIDSON    [  0]    ***   
       EOM_NTRIP            IEOMTR          10D-  0             ***   
       EOM_ORDER            IEXORD         ENERGY      [  0]    ***   
       EOM_PROPSTA          IEOMST              0               ***   
       ESTATE_CONV          IEXTOL          10D-  5             ***   
       ESTATE_DIAG          IEXDIG         ITERATIVE   [  0]    ***   
       ESTATE_LOCK          IESLOC         ON          [  1]    ***   
       ESTATE_MAXC          IEXMXC             40               ***   
       ESTATE_PROP          IEXPRP         OFF         [  0]    ***   
       EVAL_HESS            IRECAL              0            # of cyc.
       EXCITATION           IEXCIT              0               ***   
       EXCITE               IEXCIT         NONE        [  0]    ***   
       EXTERN_POT           IEXPOT         OFF         [  0]    ***   
       FCGRADNEW            IFCGNW         OFF         [  0]    ***   
       FC_FIELD             IFINFC              0             x 10-6  
       FD_CALTYPE           IFDCAL         GRADONLY    [  0]    ***   
       FD_PROJECT           IFDPRJ         OFF         [  1]    ***   
       FD_STEPSIZE          IDISFD              0            10-4 bohr
       FD_USEGROUP          IFDGRP         FULL        [  0]    ***   
       FILE_RECSIZ          IFLREC              4096           words  
       FINITE_PERT          IFIPER              0             x 10-6  
       FIXGEOM              IFIXGM         OFF         [  0]    ***   
       FOCK                 IFOCK          AO          [  1]    ***   
       FREQ_ALGORI          IVIALG         STANDARD    [  0]    ***   
       FROZEN_CORE          IFROCO         OFF         [  0]    ***   
       GAMMA_ABCD           IGABCD         STORE       [  0]    ***   
       GAMMA_ABCI           IGABCI         STORE       [  0]    ***   
       GENBAS_1             IGNBS1              0               ***   
       GENBAS_2             IGNBS2              0               ***   
       GENBAS_3             IGNBS3              0               ***   
       GENBAS_4             IGNBS4              0               ***   
       GEO_CONV             ICONTL              5              H/bohr 
       GEO_MAXCYC           IOPTCY             50               ***   
       GEO_MAXSTEP          IMXSTP            300            millibohr
       GEO_METHOD           INR            SINGLE_POINT[  5]    ***   
       GIAO                 IGIAO          OFF         [  1]    ***   
       GIMIC                IGIMIC         OFF         [  0]    ***   
       GRID                 IGRID          OFF         [  0]    ***   
       GRID_ALGO            IGALGO         SERIAL      [  0]    ***   
       GUESS                IGUESS         MOREAD      [  0]    ***   
       HBAR                 IHBAR          OFF         [  0]    ***   
       HESS_TYPE            IHESTP         SCF         [  0]    ***   
       HF2_FILE             IHF2Fl         USE         [  1]    ***   
       HFSTABILITY          ISTABL         OFF         [  0]    ***   
       INCORE               INCORE         OFF         [  0]    ***   
       INPUT_MRCC           IMRCC          ON          [  1]    ***   
       INTEGRALS            INTTYP         VMOL        [  1]    ***   
       JODA_PRINT           IJPRNT              0               ***   
       KEYWORD_OUT          IDMPKW         NO          [  0]    ***   
       LINDEP_TOL           ILINDP              8               ***   
       LINEQ_CONV           IZTACN          10D-  7           cycles  
       LINEQ_EXPOR          ILMAXD              5               ***   
       LINEQ_MAXCY          ILMAXC            100               ***   
       LINEQ_TYPE           ILTYPE         DIIS        [  1]    ***   
       LOCK_ORBOCC          ILOCOC         OFF         [  0]    ***   
       MEMORY_SIZE          IMEMSZ         500000000           words  
       MEM_UNIT             IMEMU          INTEGERWORDS[  0]    ***   
       MRCC                 IMRCCC         OFF         [  0]    ***   
       MULTIPLICTY          IMULTP              1               ***   
       NACOUPLING           IVCOUP         OFF         [  0]    ***   
       NEGEVAL              IDIE           ABORT       [  0]    ***   
       NEWNORM              INEWNO         OFF         [  0]    ***   
       NON-HF               INONHF         OFF         [  0]    ***   
       NTOP_TAMP            ITOPT2             15               ***   
       NUC_MODEL            INUCMO         POINT       [  0]    ***   
       OCCUPATION           IOCCU   ESTIMATED BY SCF 
       OPEN-SHELL           IOPEN          SPIN-ORBITAL[  0]    ***   
       OPTVIB               IOPTVB         OFF         [  0]    ***   
       ORBITALS             IORBTP         STANDARD    [  0]    ***   
       PARALLEL             IPARAL         ON          [  1]    ***   
       PARA_INT             IPINTS         ON          [  1]    ***   
       PARA_PRINT           IPPRIN              0               ***   
       PERT_ORB             IPTORB         STANDARD    [  0]    ***   
       POINTS               IGRDFD              0               ***   
       PRINT                IPRNT               0               ***   
       PROPS                IPROPS         OFF         [  0]    ***   
       PROP_INTEGR          IINTYP         INTERNAL    [  0]    ***   
       PSI                  IPSI           OFF         [  0]    ***   
       QC_ALG               IQCALG         FLM         [  0]    ***   
       QC_LINALG            IQCLIN         TRIDIAG     [  2]    ***   
       QC_MAXCYC            IQCMAX          10D-100           cycles  
       QC_MAXSCFCY          IQCMSC          10D- 15           cycles  
       QC_RTRUST            IQCRTR          10D-  0           x 10-3  
       QC_SKIPSCF           IQCSKI         OFF         [  0]    ***   
       QC_START             IQCSTA          10D-  1             ***   
       QRHFGUESS            IQGUES         OFF         [  0]    ***   
       QUARTIC              IQUART         OFF         [  0]    ***   
       RAMAN_INT            IRAMIN         OFF         [  0]    ***   
       RAMAN_ORB            IRAMRE         UNRELAXED   [  0]    ***   
       RDO                  IRDOFM         ON          [  1]    ***   
       REDUCE_REPR          REDREP         Ir          [  0]    ***   
       REFERENCE            IREFNC         RHF         [  0]    ***   
       RELATIVIST           IRELAT         OFF         [  0]    ***   
       RELAX_DENS           IRDENS         ON          [  1]    ***   
       RESET_FLAGS          IRESET         OFF         [  0]    ***   
       RESTART_CC           ICCRES         OFF         [  0]    ***   
       ROT_EVEC             ROTVEC              0               ***   
       SAVE_INTS            ISVINT         OFF         [  0]    ***   
       SCALE_ON             ISTCRT              0               ***   
       SCF_CONV             ISCFCV          10D- 10             ***   
       SCF_DAMPING          IDAMP               0             x 10-3  
       SCF_EXPORDE          IRPPOR              6               ***   
       SCF_EXPSTAR          IRPPLS              8               ***   
       SCF_EXTRAPO          IRPP           ON          [  1]    ***   
       SCF_MAXCYC           ISCFCY            150              cycles 
       SCF_NOSTOP           ISCFST         OFF         [  0]    ***   
       SCF_PRINT            ISCFPR              0               ***   
       SCF_PROG             ISCFPR         SCF         [  0]    ***   
       SD_FIELD             IFINSD              0             x 10-6  
       SOPERT               IPERSO         OFF         [  0]    ***   
       SPHERICAL            IDFGHI         ON          [  1]    ***   
       SPINORBIT            ISOCAL         OFF         [  0]    ***   
       SPINROTATIO          ISRCON         OFF         [  0]    ***   
       SPIN_FLIP            ISPFLP         OFF         [  0]    ***   
       SPIN_ORBIT           ISPORB         OFF         [  0]    ***   
       SPIN_SCAL            ISCSMP         OFF         [  0]    ***   
       STEEPSCALE           ISTPSC              1000          x 10-3  
       SUBGROUP             ISUBGP         DEFAULT     [  0]    ***   
       SUBGRPAXIS           ISBXYZ         X           [  0]    ***   
       SYMMETRY             ISYM           ON          [  0]    ***   
       SYM_CHECK            ISYMCK         OVERRIDE    [  1]    ***   
       T3_EXTRAPOL          IT3EXT         OFF         [  0]    ***   
       T4_EXTRAPOL          IT4EXP         OFF         [  0]    ***   
       TAMP_SUM             IEVERY              5               ***   
       TESTSUITE            ITESTS         OFF         [  0]    ***   
       THERMOCH             ITHERM         OFF         [  0]    ***   
       TOL_CHOLESK          ITOLCH          10D-  4             ***   
       TRANGRAD             IRESRM         OFF         [  0]    ***   
       TRANS_INV            ITRAIN         IGNORE      [  1]    ***   
       TREAT_PERT           ITREAT         SIMULTANEOUS[  0]    ***   
       TRIP_ALGORI          ITRALG         NORMAL      [  0]    ***   
       UIJ_THRESHO          IUIJTH              1               ***   
       UNITS                IUNITS         ANGSTROM    [  0]    ***   
       UNOS                 IUNOS          OFF         [  0]    ***   
       UPDATE_HESS          IHUPDT         ON          [  1]    ***   
       VIBPHASE             ISETPH         STANDARD    [  0]    ***   
       VIBRATION            IVIB           ANALYTIC    [  1]    ***   
       VIB_ALGORIT          IGEALG         STANDARD    [  0]    ***   
       VNATORB              IVNORB         OFF         [  0]    ***   
       VTRAN                IVTRAN         FULL/PARTIAL[  0]    ***   
       XFIELD               IXEFLD              0             x 10-6  
       XFORM_TOL            IXFTOL          10D- 11             ***   
       YFIELD               IYEFLD              0             x 10-6  
       ZFIELD               IZEFLD              0             x 10-6  
       ZSCALE_EXP           IZEXPS         OFF         [  0]    ***   
    -------------------------------------------------------------------
   3 entries found in Z-matrix 
   Job Title : Hypochlorous acid DBOC calculation                                              
   There are  3 unique internal coordinates.
   Of these,  0 will be optimized.
   User supplied Z-matrix: 
--------------------------------------------------------------------------------
       SYMBOL    BOND      LENGTH    ANGLE     ANGLE     DIHED     ANGLE
                  TO      (ANGST)    WRT      (DEG)      WRT      (DEG)
--------------------------------------------------------------------------------
        O    
        H          1         ROH  
        CL         1         ROCL       2        A    
                  *Initial values for internal coordinates* 
                      Name             Value
                        ROH             1.8000000000
                        ROCL            1.6830000000
                        A             107.0000000000
--------------------------------------------------------------------------------
   Rotational constants (in cm-1): 
          0.4579939640             0.4937615357             6.3224812873
   Rotational constants (in MHz): 
      13730.3155448092         14802.6005198575        189543.2471319015
********************************************************************************
   The full molecular point group is C s .
   The largest Abelian subgroup of the full molecular point group is C s .
   The computational point group is C s .
********************************************************************************
--------------------------------------------------------------------------------
   Analysis of internal coordinates specified by Z-matrix 
--------------------------------------------------------------------------------
   *The nuclear repulsion energy is   48.325744038251997 a.u.
   *There are   3 degrees of freedom within the tot. symm. molecular subspace.
   *Z-matrix requests optimization of   0 coordinates.
   *The optimization is constrained.
   *The following   3 parameters can have non-zero 
    derivatives within the totally symmetric subspace:
             A    [ 3]  ROH  [ 1]  ROCL [ 2]
   *The following   0 parameters are to be optimized:

   *The following coordinates must be varied in an  unconstrained optimization.
             A    [ 3]  ROH  [ 1]  ROCL [ 2]
--------------------------------------------------------------------------------


 ----------------------------------------------------------------
         Coordinates used in calculation (QCOMP) 
 ----------------------------------------------------------------
 Z-matrix   Atomic            Coordinates (in bohr)
  Symbol    Number           X              Y              Z
 ----------------------------------------------------------------
     O         8        -2.10603855     0.25630249     0.00000000
     H         1        -3.39318638    -2.89226947     0.00000000
     CL       17         1.06110559    -0.03387686     0.00000000
 ----------------------------------------------------------------
 
   Interatomic distance matrix (Angstroms) 
 
                 O             H             CL   
                [ 1]        [ 2]        [ 3]
  O    [ 1]     0.00000
  H    [ 2]     1.80000     0.00000
  CL   [ 3]     1.68300     2.80070     0.00000
 rotcon2
   Rotational constants (in cm-1): 
          6.3224812873             0.4937615357             0.4579939640
   Rotational constants (in MHz): 
     189543.2471319018         14802.6005198575         13730.3155448092
  ECPDATA file not present.   Using default ECPDATA. 
  @GTFLGS-I, Hessian will be transformed to curvilinear coordinates.
  There are  157 basis functions.
 @CHECKOUT-I, Total execution time (CPU/WALL):        0.27/       0.32 seconds.
--executable xjoda finished with status     0 in        0.38 seconds (walltime).
 --invoking executable--
/home/asmola/.local/bin/xvmol
 SERIAL VERSION OF MOLECULE STARTED
********************************************************************************
                    INPUT FROM MOL FILE
********************************************************************************
INTGRL        1    0    1    0    0    0    0    0    0                         
         *** CFOUR Program System (Release V0.1) ***                            
Hypochlorous acid DBOC calculation                                              
    3    1 Z          0.10E-08              0    0                              
   9999.00      3.00                                                            
          8.00000000    1    4    1    1    1    1                              
O #1  -2.106038554408759   0.256302486959138   0.000000000000000                
   13    7                                                                      
   15330.0000000000       5.080000000000000E-004 -1.150000000000000E-004        
  0.000000000000000E+000  0.000000000000000E+000  0.000000000000000E+000        
  0.000000000000000E+000  0.000000000000000E+000                                
   2299.00000000000       3.929000000000000E-003 -8.950000000000000E-004        
  0.000000000000000E+000  0.000000000000000E+000  0.000000000000000E+000        
  0.000000000000000E+000  0.000000000000000E+000                                
   522.400000000000       2.024300000000000E-002 -4.636000000000000E-003        
  0.000000000000000E+000  0.000000000000000E+000  0.000000000000000E+000        
  0.000000000000000E+000  0.000000000000000E+000                                
   147.300000000000       7.918100000000000E-002 -1.872400000000000E-002        
  0.000000000000000E+000  0.000000000000000E+000  0.000000000000000E+000        
  0.000000000000000E+000  0.000000000000000E+000                                
   47.5500000000000       0.230687000000000      -5.846300000000000E-002        
  0.000000000000000E+000  0.000000000000000E+000  0.000000000000000E+000        
  0.000000000000000E+000  0.000000000000000E+000                                
   16.7600000000000       0.433118000000000      -0.136463000000000             
  0.000000000000000E+000  0.000000000000000E+000  0.000000000000000E+000        
  0.000000000000000E+000  0.000000000000000E+000                                
   6.20700000000000       0.350260000000000      -0.175740000000000             
  0.000000000000000E+000  0.000000000000000E+000  0.000000000000000E+000        
  0.000000000000000E+000  0.000000000000000E+000                                
   1.75200000000000       4.272800000000000E-002  0.160934000000000             
   1.00000000000000       0.000000000000000E+000  0.000000000000000E+000        
  0.000000000000000E+000  0.000000000000000E+000                                
  0.688200000000000      -8.154000000000000E-003  0.603418000000000             
  0.000000000000000E+000  0.000000000000000E+000  0.000000000000000E+000        
  0.000000000000000E+000  0.000000000000000E+000                                
  0.238400000000000       2.381000000000000E-003  0.378765000000000             
  0.000000000000000E+000   1.00000000000000       0.000000000000000E+000        
  0.000000000000000E+000  0.000000000000000E+000                                
   7.84500000000000       0.000000000000000E+000  0.000000000000000E+000        
  0.000000000000000E+000  0.000000000000000E+000   1.00000000000000             
  0.000000000000000E+000  0.000000000000000E+000                                
   21.0320000000000       0.000000000000000E+000  0.000000000000000E+000        
  0.000000000000000E+000  0.000000000000000E+000  0.000000000000000E+000        
   1.00000000000000       0.000000000000000E+000                                
  7.376000000000001E-002  0.000000000000000E+000  0.000000000000000E+000        
  0.000000000000000E+000  0.000000000000000E+000  0.000000000000000E+000        
  0.000000000000000E+000   1.00000000000000                                     
    8    6                                                                      
   34.4600000000000       1.592800000000000E-002  0.000000000000000E+000        
  0.000000000000000E+000  0.000000000000000E+000  0.000000000000000E+000        
  0.000000000000000E+000                                                        
   7.74900000000000       9.974000000000000E-002  0.000000000000000E+000        
  0.000000000000000E+000  0.000000000000000E+000  0.000000000000000E+000        
  0.000000000000000E+000                                                        
   2.28000000000000       0.310492000000000       0.000000000000000E+000        
  0.000000000000000E+000  0.000000000000000E+000  0.000000000000000E+000        
  0.000000000000000E+000                                                        
  0.715600000000000       0.491026000000000        1.00000000000000             
  0.000000000000000E+000  0.000000000000000E+000  0.000000000000000E+000        
  0.000000000000000E+000                                                        
  0.214000000000000       0.336337000000000       0.000000000000000E+000        
   1.00000000000000       0.000000000000000E+000  0.000000000000000E+000        
  0.000000000000000E+000                                                        
   15.1590000000000       0.000000000000000E+000  0.000000000000000E+000        
  0.000000000000000E+000   1.00000000000000       0.000000000000000E+000        
  0.000000000000000E+000                                                        
   57.4370000000000       0.000000000000000E+000  0.000000000000000E+000        
  0.000000000000000E+000  0.000000000000000E+000   1.00000000000000             
  0.000000000000000E+000                                                        
  5.974000000000000E-002  0.000000000000000E+000  0.000000000000000E+000        
  0.000000000000000E+000  0.000000000000000E+000  0.000000000000000E+000        
   1.00000000000000                                                             
    4    4                                                                      
   2.31400000000000        1.00000000000000       0.000000000000000E+000        
  0.000000000000000E+000  0.000000000000000E+000                                
  0.645000000000000       0.000000000000000E+000   1.00000000000000             
  0.000000000000000E+000  0.000000000000000E+000                                
   15.8580000000000       0.000000000000000E+000  0.000000000000000E+000        
   1.00000000000000       0.000000000000000E+000                                
  0.214000000000000       0.000000000000000E+000  0.000000000000000E+000        
  0.000000000000000E+000   1.00000000000000                                     
    2    2                                                                      
   1.42800000000000        1.00000000000000       0.000000000000000E+000        
  0.500000000000000       0.000000000000000E+000   1.00000000000000             
          1.00000000    1    3    1    1    1                                   
H #2  -3.393186382223122  -2.892269468006534   0.000000000000000                
    6    4                                                                      
   33.8700000000000       6.068000000000000E-003  0.000000000000000E+000        
  0.000000000000000E+000  0.000000000000000E+000                                
   5.09500000000000       4.530800000000000E-002  0.000000000000000E+000        
  0.000000000000000E+000  0.000000000000000E+000                                
   1.15900000000000       0.202822000000000       0.000000000000000E+000        
  0.000000000000000E+000  0.000000000000000E+000                                
  0.325800000000000       0.503903000000000        1.00000000000000             
  0.000000000000000E+000  0.000000000000000E+000                                
  0.102700000000000       0.383421000000000       0.000000000000000E+000        
   1.00000000000000       0.000000000000000E+000                                
  2.526000000000000E-002  0.000000000000000E+000  0.000000000000000E+000        
  0.000000000000000E+000   1.00000000000000                                     
    3    3                                                                      
   1.40700000000000        1.00000000000000       0.000000000000000E+000        
  0.000000000000000E+000                                                        
  0.388000000000000       0.000000000000000E+000   1.00000000000000             
  0.000000000000000E+000                                                        
  0.102000000000000       0.000000000000000E+000  0.000000000000000E+000        
   1.00000000000000                                                             
    2    2                                                                      
   1.05700000000000        1.00000000000000       0.000000000000000E+000        
  0.247000000000000       0.000000000000000E+000   1.00000000000000             
         17.00000000    1    4    1    1    1    1                              
CL#3   1.061105589186202  -0.033876856927410   0.000000000000000                
   18    8                                                                      
   456100.000000000       4.930000000000000E-005 -1.380000000000000E-005        
  4.200000000000000E-006  0.000000000000000E+000  0.000000000000000E+000        
  0.000000000000000E+000  0.000000000000000E+000  0.000000000000000E+000        
   68330.0000000000       3.830000000000000E-004 -1.073000000000000E-004        
  3.240000000000000E-005  0.000000000000000E+000  0.000000000000000E+000        
  0.000000000000000E+000  0.000000000000000E+000  0.000000000000000E+000        
   15550.0000000000       2.008500000000000E-003 -5.651000000000000E-004        
  1.711000000000000E-004  0.000000000000000E+000  0.000000000000000E+000        
  0.000000000000000E+000  0.000000000000000E+000  0.000000000000000E+000        
   4405.00000000000       8.385600000000000E-003 -2.361400000000000E-003        
  7.142000000000000E-004  0.000000000000000E+000  0.000000000000000E+000        
  0.000000000000000E+000  0.000000000000000E+000  0.000000000000000E+000        
   1439.00000000000       2.947030000000000E-002 -8.458900000000000E-003        
  2.567000000000000E-003  0.000000000000000E+000  0.000000000000000E+000        
  0.000000000000000E+000  0.000000000000000E+000  0.000000000000000E+000        
   520.400000000000       8.783249999999999E-002 -2.596380000000000E-002        
  7.885500000000000E-003  0.000000000000000E+000  0.000000000000000E+000        
  0.000000000000000E+000  0.000000000000000E+000  0.000000000000000E+000        
   203.100000000000       0.211473000000000      -6.863619999999999E-002        
  2.108670000000000E-002  0.000000000000000E+000  0.000000000000000E+000        
  0.000000000000000E+000  0.000000000000000E+000  0.000000000000000E+000        
   83.9600000000000       0.365364000000000      -0.141874000000000             
  4.422640000000000E-002  0.000000000000000E+000  0.000000000000000E+000        
  0.000000000000000E+000  0.000000000000000E+000  0.000000000000000E+000        
   36.2000000000000       0.340884000000000      -0.199319000000000             
  6.516700000000000E-002  0.000000000000000E+000  0.000000000000000E+000        
  0.000000000000000E+000  0.000000000000000E+000  0.000000000000000E+000        
   15.8300000000000       0.102133000000000      -1.956620000000000E-002        
  6.030100000000000E-003  0.000000000000000E+000  0.000000000000000E+000        
  0.000000000000000E+000  0.000000000000000E+000  0.000000000000000E+000        
   6.33400000000000       3.116800000000000E-003  0.499741000000000             
 -0.206495000000000       0.000000000000000E+000  0.000000000000000E+000        
  0.000000000000000E+000  0.000000000000000E+000  0.000000000000000E+000        
   2.69400000000000       1.057500000000000E-003  0.563736000000000             
 -0.405871000000000       0.000000000000000E+000  0.000000000000000E+000        
  0.000000000000000E+000  0.000000000000000E+000  0.000000000000000E+000        
  0.976800000000000      -3.780000000000000E-004  7.903250000000001E-002        
  7.595580000000000E-002   1.00000000000000       0.000000000000000E+000        
  0.000000000000000E+000  0.000000000000000E+000  0.000000000000000E+000        
  0.431300000000000       1.561000000000000E-004 -8.350900000000000E-003        
  0.725661000000000       0.000000000000000E+000  0.000000000000000E+000        
  0.000000000000000E+000  0.000000000000000E+000  0.000000000000000E+000        
  0.162500000000000      -5.140000000000000E-005  2.324600000000000E-003        
  0.394423000000000       0.000000000000000E+000   1.00000000000000             
  0.000000000000000E+000  0.000000000000000E+000  0.000000000000000E+000        
   15.0640000000000       0.000000000000000E+000  0.000000000000000E+000        
  0.000000000000000E+000  0.000000000000000E+000  0.000000000000000E+000        
   1.00000000000000       0.000000000000000E+000  0.000000000000000E+000        
   2.87400000000000       0.000000000000000E+000  0.000000000000000E+000        
  0.000000000000000E+000  0.000000000000000E+000  0.000000000000000E+000        
  0.000000000000000E+000   1.00000000000000       0.000000000000000E+000        
  5.910000000000000E-002  0.000000000000000E+000  0.000000000000000E+000        
  0.000000000000000E+000  0.000000000000000E+000  0.000000000000000E+000        
  0.000000000000000E+000  0.000000000000000E+000   1.00000000000000             
   12    7                                                                      
   663.300000000000       2.404500000000000E-003 -6.521000000000000E-004        
  0.000000000000000E+000  0.000000000000000E+000  0.000000000000000E+000        
  0.000000000000000E+000  0.000000000000000E+000                                
   156.800000000000       1.921480000000000E-002 -5.194500000000000E-003        
  0.000000000000000E+000  0.000000000000000E+000  0.000000000000000E+000        
  0.000000000000000E+000  0.000000000000000E+000                                
   49.9800000000000       8.850970000000000E-002 -2.469380000000000E-002        
  0.000000000000000E+000  0.000000000000000E+000  0.000000000000000E+000        
  0.000000000000000E+000  0.000000000000000E+000                                
   18.4200000000000       0.256020000000000      -7.281670000000000E-002        
  0.000000000000000E+000  0.000000000000000E+000  0.000000000000000E+000        
  0.000000000000000E+000  0.000000000000000E+000                                
   7.24000000000000       0.436927000000000      -0.134030000000000             
  0.000000000000000E+000  0.000000000000000E+000  0.000000000000000E+000        
  0.000000000000000E+000  0.000000000000000E+000                                
   2.92200000000000       0.350334000000000      -9.477420000000000E-002        
  0.000000000000000E+000  0.000000000000000E+000  0.000000000000000E+000        
  0.000000000000000E+000  0.000000000000000E+000                                
   1.02200000000000       5.854950000000000E-002  0.262289000000000             
   1.00000000000000       0.000000000000000E+000  0.000000000000000E+000        
  0.000000000000000E+000  0.000000000000000E+000                                
  0.381800000000000      -4.584200000000000E-003  0.564667000000000             
  0.000000000000000E+000  0.000000000000000E+000  0.000000000000000E+000        
  0.000000000000000E+000  0.000000000000000E+000                                
  0.130100000000000       2.269700000000000E-003  0.341250000000000             
  0.000000000000000E+000   1.00000000000000       0.000000000000000E+000        
  0.000000000000000E+000  0.000000000000000E+000                                
   9.48000000000000       0.000000000000000E+000  0.000000000000000E+000        
  0.000000000000000E+000  0.000000000000000E+000   1.00000000000000             
  0.000000000000000E+000  0.000000000000000E+000                                
   3.66800000000000       0.000000000000000E+000  0.000000000000000E+000        
  0.000000000000000E+000  0.000000000000000E+000  0.000000000000000E+000        
   1.00000000000000       0.000000000000000E+000                                
  4.190000000000000E-002  0.000000000000000E+000  0.000000000000000E+000        
  0.000000000000000E+000  0.000000000000000E+000  0.000000000000000E+000        
  0.000000000000000E+000   1.00000000000000                                     
    5    5                                                                      
   1.04600000000000        1.00000000000000       0.000000000000000E+000        
  0.000000000000000E+000  0.000000000000000E+000  0.000000000000000E+000        
  0.344000000000000       0.000000000000000E+000   1.00000000000000             
  0.000000000000000E+000  0.000000000000000E+000  0.000000000000000E+000        
   17.9570000000000       0.000000000000000E+000  0.000000000000000E+000        
   1.00000000000000       0.000000000000000E+000  0.000000000000000E+000        
   5.76000000000000       0.000000000000000E+000  0.000000000000000E+000        
  0.000000000000000E+000   1.00000000000000       0.000000000000000E+000        
  0.135000000000000       0.000000000000000E+000  0.000000000000000E+000        
  0.000000000000000E+000  0.000000000000000E+000   1.00000000000000             
    3    3                                                                      
  0.706000000000000        1.00000000000000       0.000000000000000E+000        
  0.000000000000000E+000                                                        
   11.7790000000000       0.000000000000000E+000   1.00000000000000             
  0.000000000000000E+000                                                        
  0.312000000000000       0.000000000000000E+000  0.000000000000000E+000        
   1.00000000000000                                                             
FINISH                                                                          
 
********************************************************************************
 ONE- AND TWO-ELECTRON INTEGRALS OVER SYMMETRY-ADAPTED AOS ARE CALCULATED.

  SPHERICAL HARMONICS ARE USED.
  
  INTEGRALS LESS THAN  0.10E-13 ARE NEGLECTED.

  NUCLEAR REPULSION ENERGY :   48.3257440383 A.U.
  @MOLECU-I, ONE ELECTRON INTEGRALS (CPU/WALL):        0.04/       0.05 SECONDS.
  @TWOEL-I,   14064447 INTEGRALS OF SYMMETRY TYPE  I I I I
  @TWOEL-I,   13213429 INTEGRALS OF SYMMETRY TYPE  I J I J
  @TWOEL-I,    6844578 INTEGRALS OF SYMMETRY TYPE  I I J J
  @TWOEL-I, TOTAL NUMBER OF 2-E INTEGRALS   34122454.
  @MOLECU-I, TWO ELECTRON INTEGRALS (CPU/WALL):       51.95/       9.00 SECONDS.
 @CHECKOUT-I, Total execution time (CPU/WALL):       52.01/       9.08 seconds.

Running with 14 threads/proc

--executable xvmol finished with status     0 in        9.30 seconds (walltime).
 --invoking executable--
/home/asmola/.local/bin/xvmol2ja
 @GETMEM-I,  Allocated    3814 MB of main memory.
 @CHECKOUT-I, Total execution time (CPU/WALL):        0.12/       0.03 seconds.
--executable xvmol2ja finished with status     0 in        0.09 seconds (walltime).
 --invoking executable--
/home/asmola/.local/bin/xvscf
  There are  157 functions in the AO basis.

  There are 2 irreducible representations.

       Irrep        # of functions
         1                104
         2                 53


  Parameters for SCF calculation: 
        SCF reference function:  RHF  
  Maximum number of iterations:  150
     Full symmetry point group: C s 
     Computational point group: C s 
        Initial density matrix: MOREAD                 
     SCF convergence tolerance: 10**(-10)
  DIIS convergence acceleration:  ON
          Latest start for DIIS:   8
                     DIIS order:   6

  Memory information:    1209746 words required.
  Fock matrices are constructed from AO integral file.
 @GETMEM-I,  Allocated       9 MB of main memory.
  Initialization and symmetry analysis required      0.001 seconds.

  @INITGES-I, Occupancies from core Hamiltonian:

          Alpha population by irrep:  10    3
           Beta population by irrep:  10    3


 total no. of electrons in initial guess :  0.000000000000000E+000
  --------------------------------------------------------------------
  Iteration         Total Energy            Largest Density Difference
  --------------------------------------------------------------------
       0            48.325744038251990              0.0000000000D+00
   current occupation vector 
    10  3
    10  3
       1          -366.494363545423766              0.1325204201D+02
   current occupation vector 
    10  3
    10  3
       2          -343.735339071922226              0.1321395275D+02
   current occupation vector 
    10  3
    10  3
       3          -422.455365161984616              0.1067049412D+02
   current occupation vector 
    10  3
    10  3
       4          -340.798063161227333              0.1068041564D+02
   current occupation vector 
    10  3
    10  3
       5          -422.206418264878153              0.1062178338D+02
   current occupation vector 
    10  3
    10  3
       6          -340.704521282771452              0.1062207665D+02
   current occupation vector 
    10  3
    10  3
       7          -422.198080165891838              0.1062003521D+02
   current occupation vector 
    10  3
    10  3
       8          -340.701626761889543              0.1062004380D+02
   current occupation vector 
    10  3
    10  3
       9          -445.118663910677469              0.8446052467D+01
   current occupation vector 
    10  3
    10  3
      10          -461.659065550884122              0.1812171852D+01
   current occupation vector 
    10  3
    10  3
      11          -464.530598639370055              0.3253499772D+00
   current occupation vector 
    10  3
    10  3
      12          -464.970491455111983              0.9217451630D-01
   current occupation vector 
    10  3
    10  3
      13          -474.321910088083882              0.1135457194D+01
   current occupation vector 
    10  3
    10  3
      14          -473.832537132368770              0.5587666080D-01
   current occupation vector 
    10  3
    10  3
      15          -508.927763294162446              0.7354570408D+01
   current occupation vector 
    10  3
    10  3
      16          -519.258783934836970              0.7354291622D+01
   current occupation vector 
    11  2
    11  2
      17          -525.596703726390501              0.4067279935D+01
   current occupation vector 
    11  2
    11  2
      18          -532.101643835437585              0.2015540179D+01
   current occupation vector 
    11  2
    11  2
      19          -534.493371817207844              0.2057580356D+01
   current occupation vector 
    10  3
    10  3
      20          -534.591129122303073              0.9699798320D+00
   current occupation vector 
    10  3
    10  3
      21          -534.731797273512484              0.4352186523D+00
   current occupation vector 
    10  3
    10  3
      22          -534.736592504734631              0.9283955107D-01
   current occupation vector 
    10  3
    10  3
      23          -534.738065215489883              0.6170814674D-01
   current occupation vector 
    10  3
    10  3
      24          -534.738183577530663              0.1681166905D-01
   current occupation vector 
    10  3
    10  3
      25          -534.738202738603945              0.5869213715D-02
   current occupation vector 
    10  3
    10  3
      26          -534.738208122397396              0.3328958457D-02
   current occupation vector 
    10  3
    10  3
      27          -534.738208764365027              0.1141962586D-02
   current occupation vector 
    10  3
    10  3
      28          -534.738208820673549              0.3107355867D-03
   current occupation vector 
    10  3
    10  3
      29          -534.738208831034285              0.1807476186D-03
   current occupation vector 
    10  3
    10  3
      30          -534.738208832134546              0.3064813533D-04
   current occupation vector 
    10  3
    10  3
      31          -534.738208832337250              0.1538096500D-04
   current occupation vector 
    10  3
    10  3
      32          -534.738208832371015              0.9514715732D-05
   current occupation vector 
    10  3
    10  3
      33          -534.738208832368969              0.2907565387D-05
   current occupation vector 
    10  3
    10  3
      34          -534.738208832369310              0.1322361316D-05
   current occupation vector 
    10  3
    10  3
      35          -534.738208832369992              0.2546000317D-06
   current occupation vector 
    10  3
    10  3
      36          -534.738208832372266              0.1066218009D-06
   current occupation vector 
    10  3
    10  3
      37          -534.738208832371697              0.5489733490D-07
   current occupation vector 
    10  3
    10  3
      38          -534.738208832375449              0.2322064274D-07
   current occupation vector 
    10  3
    10  3
      39          -534.738208832373289              0.8287078024D-08
   current occupation vector 
    10  3
    10  3
      40          -534.738208832373402              0.5851525042D-08
   current occupation vector 
    10  3
    10  3
      41          -534.738208832374653              0.3125464110D-08
   current occupation vector 
    10  3
    10  3
      42          -534.738208832377723              0.1237203312D-08
   current occupation vector 
    10  3
    10  3
      43          -534.738208832375449              0.5218973309D-09
   current occupation vector 
    10  3
    10  3
      44          -534.738208832375790              0.1785051135D-09
   current occupation vector 
    10  3
    10  3

  SCF has converged.

 Density matrix saved to file den.dat
 total electron number:   26.0000000000000     
     E(SCF)=      -534.738208832372948              0.6861067270D-10

  Eigenvector printing suppressed.

 @PUTMOS-I, Writing converged MOs to NEWMOS. 
 @PUTMOS-I, Symmetry   1 Full Blocks 26 Partial Blocksize   0
 @PUTMOS-I, Symmetry   2 Full Blocks 13 Partial Blocksize   1
 @PUTFOCK-I, Writing converged Fock matrix to NEWFOCK. 
 @PUTFOCK-I, Symmetry   1 Full Blocks 26 Partial Blocksize   0
 @PUTFOCK-I, Symmetry   2 Full Blocks 13 Partial Blocksize   1


 
  ORBITAL EIGENVALUES (ALPHA)  (1H = 27.2113834 eV)

       MO #        E(hartree)               E(eV)           FULLSYM    COMPSYM
       ----   --------------------   --------------------   -------   ---------
    1     1        -104.8845677272       -2854.0541851682     A'        A'  (1)
    2     2         -20.6712635705        -562.4936783782     A'        A'  (1)
    3     3         -10.6041976737        -288.5548885479     A'        A'  (1)
    4     4          -8.0708095096        -219.6178919142     A'        A'  (1)
    5     5          -8.0687415089        -219.5616187551     A'        A'  (1)
    6   105          -8.0685104120        -219.5553302883     A''       A'' (2)
    7     6          -1.3494398913         -36.7201262579     A'        A'  (1)
    8     7          -1.0261541391         -27.9230737065     A'        A'  (1)
    9   106          -0.6022802023         -16.3888774977     A''       A'' (2)
   10     8          -0.5941592477         -16.1678950904     A'        A'  (1)
   11     9          -0.5666457352         -15.4192143528     A'        A'  (1)
   12   107          -0.4341925394         -11.8149796578     A''       A'' (2)
   13    10          -0.4168166587         -11.3421579078     A'        A'  (1)
  +++++++++++++++++++++++++++++++++++++++++++++++++++++++++++++++++++++++++++++
   14    11          -0.0492798327          -1.3409724217     A'        A'  (1)
   15    12           0.0523453795           1.4243901894     A'        A'  (1)
   16    13           0.0801799044           2.1818061183     A'        A'  (1)
   17   108           0.1178347901           3.2064476508     A''       A'' (2)
   18    14           0.1180843820           3.2132393921     A'        A'  (1)
   19    15           0.1475006526           4.0136968087     A'        A'  (1)
   20    16           0.1636345715           4.4527230619     A'        A'  (1)
   21    17           0.1763824743           4.7996111323     A'        A'  (1)
   22   109           0.1908785792           5.1940702006     A''       A'' (2)
   23    18           0.2234614080           6.0806940495     A'        A'  (1)
   24   110           0.2442359599           6.6459983461     A''       A'' (2)
   25    19           0.2753597507           7.4929197500     A'        A'  (1)
   26    20           0.3055332127           8.3139813913     A'        A'  (1)
   27    21           0.3396372424           9.2419992191     A'        A'  (1)
   28   111           0.3694919306          10.0543865878     A''       A'' (2)
   29    22           0.3856517081          10.4941164869     A'        A'  (1)
   30   112           0.4257797271          11.5860553971     A''       A'' (2)
   31    23           0.4576178617          12.4524150854     A'        A'  (1)
   32    24           0.5090832233          13.8528587723     A'        A'  (1)
   33    25           0.5893662977          16.0374722910     A'        A'  (1)
   34   113           0.6186524895          16.8343900833     A''       A'' (2)
   35    26           0.6384457885          17.3729931306     A'        A'  (1)
   36    27           0.6673384748          18.1592030954     A'        A'  (1)
   37   114           0.7362601245          20.0346565292     A''       A'' (2)
   38    28           0.7497088368          20.4006145954     A'        A'  (1)
   39    29           0.7658265649          20.8392002743     A'        A'  (1)
   40   115           0.7779356777          21.1687059878     A''       A'' (2)
   41    30           0.7925502641          21.5663890991     A'        A'  (1)
   42   116           0.8177701297          22.2526565323     A''       A'' (2)
   43    31           0.8228287307          22.3903080631     A'        A'  (1)
   44   117           0.8836026341          24.0440500489     A''       A'' (2)
   45    32           0.9040376610          24.6001154021     A'        A'  (1)
   46   118           0.9379033164          25.5216467337     A''       A'' (2)
   47    33           0.9602035139          26.1284659584     A'        A'  (1)
   48   119           0.9675464421          26.3282771927     A''       A'' (2)
   49    34           0.9868623274          26.8538891544     A'        A'  (1)
   50    35           1.0074888121          27.4151643384     A'        A'  (1)
   51    36           1.0305994652          28.0440371785     A'        A'  (1)
   52    37           1.0418333200          28.3497259105     A'        A'  (1)
   53   120           1.0824603716          29.4552441861     A''       A'' (2)
   54    38           1.0984650347          29.8907532103     A'        A'  (1)
   55   121           1.1612590786          31.5994660133     A''       A'' (2)
   56    39           1.1790817980          32.0844468641     A'        A'  (1)
   57    40           1.2064480897          32.8291215201     A'        A'  (1)
   58   122           1.2712549251          34.5926051662     A''       A'' (2)
   59    41           1.3034660291          35.4691138678     A'        A'  (1)
   60   123           1.3527874492          36.8112179390     A''       A'' (2)
   61    42           1.4843951302          40.3924450042     A'        A'  (1)
   62   124           1.5235299422          41.4573573784     A''       A'' (2)
   63    43           1.5236857322          41.4615966392     A'        A'  (1)
   64    44           1.6237836376          44.1853991210     A'        A'  (1)
   65    45           1.7230205903          46.8857738880     A'        A'  (1)
   66    46           1.8190098730          49.4977750633     A'        A'  (1)
   67   125           2.1419158672          58.2844938738     A''       A'' (2)
   68    47           2.1829641834          59.4014753441     A'        A'  (1)
   69   126           2.2222587533          60.4707349488     A''       A'' (2)
   70    48           2.2555331551          61.3761774546     A'        A'  (1)
   71   127           2.3050929329          62.7247675690     A''       A'' (2)
   72    49           2.3120231974          62.9133496532     A'        A'  (1)
   73    50           2.3149250362          62.9923127011     A'        A'  (1)
   74   128           2.3653162627          64.3635276860     A''       A'' (2)
   75    51           2.3671128998          64.4124166680     A'        A'  (1)
   76    52           2.3879354294          64.9790265037     A'        A'  (1)
   77   129           2.4384130128          66.3525913793     A''       A'' (2)
   78   130           2.4791904484          67.4622018124     A''       A'' (2)
   79    53           2.4841686304          67.5976650327     A'        A'  (1)
   80    54           2.4975397556          67.9615118456     A'        A'  (1)
   81   131           2.5133834707          68.3926412534     A''       A'' (2)
   82    55           2.5965970511          70.6569978927     A'        A'  (1)
   83    56           2.8988767474          78.8824466015     A'        A'  (1)
   84   132           2.9028424722          78.9903594605     A''       A'' (2)
   85    57           2.9668873156          80.7331082482     A'        A'  (1)
   86    58           3.0282150700          82.4019212876     A'        A'  (1)
   87   133           3.0600209015          83.2674019624     A''       A'' (2)
   88    59           3.0696976049          83.5307184501     A'        A'  (1)
   89   134           3.0970194592          84.2741839017     A''       A'' (2)
   90    60           3.1318749077          85.2226488746     A'        A'  (1)
   91    61           3.2063270958          87.2485959086     A'        A'  (1)
   92   135           3.3678874089          91.6448755317     A''       A'' (2)
   93    62           3.3721258271          91.7602087531     A'        A'  (1)
   94    63           3.3930019244          92.3282762415     A'        A'  (1)
   95   136           3.7995867046         103.3920105818     A''       A'' (2)
   96    64           3.8034969779         103.4984145253     A'        A'  (1)
   97    65           3.8275604648         104.1532152943     A'        A'  (1)
   98   137           3.9011746184         106.1563582511     A''       A'' (2)
   99    66           4.0111120351         109.1479074483     A'        A'  (1)
  100   138           4.0527333138         110.2804800193     A''       A'' (2)
  101    67           4.1319268880         112.4354467302     A'        A'  (1)
  102   139           4.1937179423         114.1168667995     A''       A'' (2)
  103    68           4.2780514664         116.4116986558     A'        A'  (1)
  104    69           4.3868892751         119.3733259991     A'        A'  (1)
  105    70           4.6490406392         126.5068272751     A'        A'  (1)
  106    71           5.1311425826         139.6254880964     A'        A'  (1)
  107    72           5.8881477290         160.2246453707     A'        A'  (1)
  108   140           6.5617116839         178.5532523910     A''       A'' (2)
  109    73           6.6057436249         179.7514224203     A'        A'  (1)
  110   141           6.6375357529         180.6165302040     A''       A'' (2)
  111    74           6.6753359764         181.6451265764     A'        A'  (1)
  112   142           6.7686863984         184.1853207004     A''       A'' (2)
  113    75           6.8502409526         186.4045329428     A'        A'  (1)
  114    76           6.9453885763         188.9936314119     A'        A'  (1)
  115   143           7.0518334734         191.8901443187     A''       A'' (2)
  116    77           7.1262013366         193.9137967571     A'        A'  (1)
  117   144           7.1648260992         194.9648299786     A''       A'' (2)
  118    78           7.3345015578         199.5819339359     A'        A'  (1)
  119    79           7.6294522645         207.6079507017     A'        A'  (1)
  120   145          10.3532993920         281.7275992118     A''       A'' (2)
  121    80          10.3585812433         281.8713256919     A'        A'  (1)
  122   146          10.3917964935         282.7751585984     A''       A'' (2)
  123    81          10.4274462540         283.7452379015     A'        A'  (1)
  124    82          10.5937244090         288.2698965276     A'        A'  (1)
  125   147          12.6824083878         345.1058770749     A''       A'' (2)
  126    83          12.7223360255         346.1923633338     A'        A'  (1)
  127    84          13.1840742995         358.7569005388     A'        A'  (1)
  128    85          18.2415930938         496.3789835019     A'        A'  (1)
  129   148          26.0460443367         708.7488985006     A''       A'' (2)
  130    86          26.1595151893         711.8365973752     A'        A'  (1)
  131    87          26.5718230996         723.0560660006     A'        A'  (1)
  132    88          28.7275449621         781.7162401039     A'        A'  (1)
  133   149          36.9007495744        1004.1204444176     A''       A'' (2)
  134    89          36.9019697864        1004.1536480721     A'        A'  (1)
  135   150          36.9026161923        1004.1712376712     A''       A'' (2)
  136    90          36.9034704436        1004.1944830314     A'        A'  (1)
  137   151          36.9099677194        1004.3712828932     A''       A'' (2)
  138    91          36.9100908068        1004.3746322731     A'        A'  (1)
  139    92          36.9149870841        1004.5078667523     A'        A'  (1)
  140   152          43.8571940629        1193.4149224944     A''       A'' (2)
  141    93          43.8697889356        1193.7576464037     A'        A'  (1)
  142   153          43.8944707558        1194.4292728755     A''       A'' (2)
  143    94          43.9032903335        1194.6692657877     A'        A'  (1)
  144    95          44.0438990151        1198.4954225295     A'        A'  (1)
  145   154          46.4875478621        1264.9904882002     A''       A'' (2)
  146    96          46.4904985795        1265.0707813028     A'        A'  (1)
  147   155          46.5123949593        1265.6666120904     A''       A'' (2)
  148    97          46.5314206565        1266.1843276306     A'        A'  (1)
  149    98          46.6161314016        1268.4894241940     A'        A'  (1)
  150   156          55.0212572593        1497.2045264321     A''       A'' (2)
  151    99          55.0664328887        1498.4338178061     A'        A'  (1)
  152   100          55.6078415729        1513.1662970857     A'        A'  (1)
  153   101         103.7759338787        2823.8867244663     A'        A'  (1)
  154   157         138.2077636540        3760.8244456451     A''       A'' (2)
  155   102         138.2905989612        3763.0785089501     A'        A'  (1)
  156   103         138.5807193559        3770.9730862413     A'        A'  (1)
  157   104         149.4199065520        4065.9223647778     A'        A'  (1)


  VSCF finished.

 @CHECKOUT-I, Total execution time (CPU/WALL):       74.85/      13.83 seconds.
--executable xvscf finished with status     0 in       13.88 seconds (walltime).
 --invoking executable--
/home/asmola/.local/bin/xvtran
 @GETMEM-I,  Allocated    3814 MB of main memory.
  Full RHF integral transformation
  Transformation of IIII integrals :
  1 pass through the AO integral file was required.
    14064447 AO integrals were read.
    15933126 MO integrals were written to HF2.
  Transformation of IIJJ integrals :
  1 pass through the AO integral file was required.
     6844578 AO integrals were read.
     7813260 MO integrals were written to HF2.
  Transformation of IJIJ integrals :
  1 pass through the AO integral file was required.
    13213429 AO integrals were read.
    15193828 MO integrals were written to HF2.
  Summary of active molecular orbitals: 
------------------------------------------------------------------------
 
  Index      Eigenvalue    Symmetry    Index      Eigenvalue    Symmetry
------------------------------------------------------------------------
     1      -104.8845677        1        80         7.1262013        1
     2       -20.6712636        1        81         7.3345016        1
     3       -10.6041977        1        82         7.6294523        1
     4        -8.0708095        1        83        10.3585812        1
     5        -8.0687415        1        84        10.4274463        1
     6        -1.3494399        1        85        10.5937244        1
     7        -1.0261541        1        86        12.7223360        1
     8        -0.5941592        1        87        13.1840743        1
     9        -0.5666457        1        88        18.2415931        1
    10        -0.4168167        1        89        26.1595152        1
    11        -8.0685104        2        90        26.5718231        1
    12        -0.6022802        2        91        28.7275450        1
    13        -0.4341925        2        92        36.9019698        1
    14        -0.0492798        1        93        36.9034704        1
    15         0.0523454        1        94        36.9100908        1
    16         0.0801799        1        95        36.9149871        1
    17         0.1180844        1        96        43.8697889        1
    18         0.1475007        1        97        43.9032903        1
    19         0.1636346        1        98        44.0438990        1
    20         0.1763825        1        99        46.4904986        1
    21         0.2234614        1       100        46.5314207        1
    22         0.2753598        1       101        46.6161314        1
    23         0.3055332        1       102        55.0664329        1
    24         0.3396372        1       103        55.6078416        1
    25         0.3856517        1       104       103.7759339        1
    26         0.4576179        1       105       138.2905990        1
    27         0.5090832        1       106       138.5807194        1
    28         0.5893663        1       107       149.4199066        1
    29         0.6384458        1       108         0.1178348        2
    30         0.6673385        1       109         0.1908786        2
    31         0.7497088        1       110         0.2442360        2
    32         0.7658266        1       111         0.3694919        2
    33         0.7925503        1       112         0.4257797        2
    34         0.8228287        1       113         0.6186525        2
    35         0.9040377        1       114         0.7362601        2
    36         0.9602035        1       115         0.7779357        2
    37         0.9868623        1       116         0.8177701        2
    38         1.0074888        1       117         0.8836026        2
    39         1.0305995        1       118         0.9379033        2
    40         1.0418333        1       119         0.9675464        2
    41         1.0984650        1       120         1.0824604        2
    42         1.1790818        1       121         1.1612591        2
    43         1.2064481        1       122         1.2712549        2
    44         1.3034660        1       123         1.3527874        2
    45         1.4843951        1       124         1.5235299        2
    46         1.5236857        1       125         2.1419159        2
    47         1.6237836        1       126         2.2222588        2
    48         1.7230206        1       127         2.3050929        2
    49         1.8190099        1       128         2.3653163        2
    50         2.1829642        1       129         2.4384130        2
    51         2.2555332        1       130         2.4791904        2
    52         2.3120232        1       131         2.5133835        2
    53         2.3149250        1       132         2.9028425        2
    54         2.3671129        1       133         3.0600209        2
    55         2.3879354        1       134         3.0970195        2
    56         2.4841686        1       135         3.3678874        2
    57         2.4975398        1       136         3.7995867        2
    58         2.5965971        1       137         3.9011746        2
    59         2.8988767        1       138         4.0527333        2
    60         2.9668873        1       139         4.1937179        2
    61         3.0282151        1       140         6.5617117        2
    62         3.0696976        1       141         6.6375358        2
    63         3.1318749        1       142         6.7686864        2
    64         3.2063271        1       143         7.0518335        2
    65         3.3721258        1       144         7.1648261        2
    66         3.3930019        1       145        10.3532994        2
    67         3.8034970        1       146        10.3917965        2
    68         3.8275605        1       147        12.6824084        2
    69         4.0111120        1       148        26.0460443        2
    70         4.1319269        1       149        36.9007496        2
    71         4.2780515        1       150        36.9026162        2
    72         4.3868893        1       151        36.9099677        2
    73         4.6490406        1       152        43.8571941        2
    74         5.1311426        1       153        43.8944708        2
    75         5.8881477        1       154        46.4875479        2
    76         6.6057436        1       155        46.5123950        2
    77         6.6753360        1       156        55.0212573        2
    78         6.8502410        1       157       138.2077637        2
    79         6.9453886        1
------------------------------------------------------------------------
  -104.884567727204       -20.6712635704603       -10.6041976736805     
  -8.07080950960266       -8.06874150893273       -1.34943989131876     
  -1.02615413909742      -0.594159247721625      -0.566645735211971     
 -0.416816658715663       -8.06851041201693      -0.602280202252802     
 -0.434192539356288      -4.927983270770295E-002  5.234537945004331E-002
  8.017990435155858E-002  0.118084381998014       0.147500652564863     
  0.163634571475004       0.176382474265040       0.223461408047854     
  0.275359750727012       0.305533212668073       0.339637242370890     
  0.385651708062273       0.457617861698468       0.509083223320185     
  0.589366297745823       0.638445788486887       0.667338474802262     
  0.749708836758135       0.765826564858397       0.792550264061058     
  0.822828730682713       0.904037661021182       0.960203513887664     
  0.986862327417270        1.00748881214298        1.03059946516743     
   1.04183332004079        1.09846503468331        1.17908179795282     
   1.20644808966597        1.30346602913878        1.48439513017120     
   1.52368573216900        1.62378363758553        1.72302059027107     
   1.81900987302790        2.18296418344007        2.25553315509050     
   2.31202319736388        2.31492503615597        2.36711289981765     
   2.38793542939579        2.48416863042359        2.49753975557307     
   2.59659705109551        2.89887674735041        2.96688731555527     
   3.02821507000467        3.06969760494113        3.13187490771211     
   3.20632709576059        3.37212582705733        3.39300192438818     
   3.80349697785899        3.82756046479801        4.01111203513211     
   4.13192688800362        4.27805146635147        4.38688927513532     
   4.64904063918883        5.13114258264390        5.88814772904012     
   6.60574362493726        6.67533597635498        6.85024095257277     
   6.94538857630763        7.12620133664572        7.33450155775353     
   7.62945226451529        10.3585812433166        10.4274462540359     
   10.5937244090131        12.7223360255087        13.1840742995387     
   18.2415930937878        26.1595151893371        26.5718230996158     
   28.7275449620786        36.9019697863679        36.9034704436006     
   36.9100908068162        36.9149870841296        43.8697889356015     
   43.9032903335467        44.0438990150551        46.4904985794602     
   46.5314206564962        46.6161314016115        55.0664328887498     
   55.6078415728650        103.775933878700        138.290598961248     
   138.580719355904        149.419906551968       0.117834790082592     
  0.190878579168826       0.244235959942155       0.369491930639401     
  0.425779727065421       0.618652489506138       0.736260124472942     
  0.777935677749356       0.817770129699962       0.883602634070744     
  0.937903316364093       0.967546442079026        1.08246037157142     
   1.16125907855392        1.27125492510613        1.35278744920585     
   1.52352994219326        2.14191586723256        2.22225875325435     
   2.30509293287144        2.36531626267770        2.43841301281569     
   2.47919044837531        2.51338347073667        2.90284247218871     
   3.06002090148837        3.09701945920482        3.36788740890342     
   3.79958670464963        3.90117461837904        4.05273331378165     
   4.19371794230529        6.56171168390394        6.63753575292313     
   6.76868639836839        7.05183347343966        7.16482609916227     
   10.3532993920412        10.3917964934637        12.6824083877683     
   26.0460443367447        36.9007495744429        36.9026161922804     
   36.9099677193627        43.8571940629214        43.8944707557757     
   46.4875478620551        46.5123949593247        55.0212572592726     
   138.207763653981     
 @CHECKOUT-I, Total execution time (CPU/WALL):       33.87/      19.10 seconds.
--executable xvtran finished with status     0 in       19.17 seconds (walltime).
 --invoking executable--
/home/asmola/.local/bin/xintprc
 @GETMEM-I,  Allocated    3814 MB of main memory.
  Processing integrals for CCSD calculation.
  @GMOIAA-I, Processing MO integrals for spin case AA.
  @GMOIAA-I, Generation of integral list completed.
                      TYPE                NUMBER
                      ----               --------
                      PPPP              27524020
                      PPPH               9932000
                      PPHH                900748
                      PHPH                491140
                      PHHH                 89950
                      HHHH                  2356

                     TOTAL              38940214

  @FORMT2-I, Second-order MP correlation energies:
            ------------------------------------------------
            E(SCF)                  =   -534.738208832373 a.u.
            E2(AA)                  =     -0.111942061482 a.u.
            E2(AB)                  =     -0.666283992943 a.u.
            E2(TOT)                 =     -0.890168115907 a.u.
            Total MP2 energy        =   -535.628376948280 a.u.
            ------------------------------------------------
   Largest T2 amplitudes for spin case AB:
       _       _                 _       _                 _       _
   i   j   a   b             i   j   a   b             i   j   a   b
-----------------------------------------------------------------------------
[ 10  10  14  14]-0.09307 [  9   9  14  14]-0.06313 [ 10   9  14  14]-0.06211
[  9  10  14  14]-0.06211 [  8   8  19  19]-0.04079 [  9   8  14  19]-0.03009
[  8   9  19  14]-0.03009 [  8   8  19  16] 0.02677 [  8   8  16  19] 0.02677
[ 10  10  15  14] 0.02669 [ 10  10  14  15] 0.02669 [ 10  10  14  16]-0.02206
[ 10  10  16  14]-0.02206 [  9   8  14  16] 0.02195 [  8   9  16  14] 0.02195
-----------------------------------------------------------------------------
   Norm of T2AB vector (  1799624 symmetry allowed elements):  0.3891435353.
-----------------------------------------------------------------------------
 @CHECKOUT-I, Total execution time (CPU/WALL):        6.72/      10.11 seconds.
--executable xintprc finished with status     0 in       10.31 seconds (walltime).
  calling xvcc 
 --invoking executable--
/home/asmola/.local/bin/xvcc
 @GETMEM-I,  Allocated    3814 MB of main memory.
   CCSD energy will be calculated.
   The total correlation energy is -0.890168115907 a.u.
   The total correlation energy is -0.872912710226 a.u.
  Convergence information after     1 iterations: 
  Largest element of residual vector :  0.29208047E-01.
  Largest element of DIIS residual   :  0.29208047E-01.
   The total correlation energy is -0.901013547278 a.u.
  Convergence information after     2 iterations: 
  Largest element of residual vector : -0.29742410E-01.
  Largest element of DIIS residual   : -0.25210896E-01.
   The total correlation energy is -0.898806141359 a.u.
  Convergence information after     3 iterations: 
  Largest element of residual vector : -0.12043317E-01.
  Largest element of DIIS residual   :  0.12613200E-01.
   The total correlation energy is -0.903069293094 a.u.
  Convergence information after     4 iterations: 
  Largest element of residual vector : -0.58738163E-02.
  Largest element of DIIS residual   : -0.25240813E-02.
   The total correlation energy is -0.904204263435 a.u.
  Convergence information after     5 iterations: 
  Largest element of residual vector :  0.33671279E-02.
  Largest element of DIIS residual   :  0.13884761E-02.
   The total correlation energy is -0.904294903036 a.u.
  Convergence information after     6 iterations: 
  Largest element of residual vector :  0.77685525E-03.
  Largest element of DIIS residual   :  0.62368156E-03.
   The total correlation energy is -0.904298809356 a.u.
  Convergence information after     7 iterations: 
  Largest element of residual vector :  0.60066450E-03.
  Largest element of DIIS residual   :  0.35319914E-03.
   The total correlation energy is -0.904319393593 a.u.
  Convergence information after     8 iterations: 
  Largest element of residual vector :  0.24828733E-03.
  Largest element of DIIS residual   :  0.12207230E-03.
   The total correlation energy is -0.904305749567 a.u.
  Convergence information after     9 iterations: 
  Largest element of residual vector :  0.85583005E-04.
  Largest element of DIIS residual   :  0.53346899E-04.
   The total correlation energy is -0.904316839282 a.u.
  Convergence information after    10 iterations: 
  Largest element of residual vector : -0.44769952E-04.
  Largest element of DIIS residual   : -0.39672477E-04.
   The total correlation energy is -0.904317715645 a.u.
  Convergence information after    11 iterations: 
  Largest element of residual vector :  0.38369130E-04.
  Largest element of DIIS residual   :  0.23971721E-04.
   The total correlation energy is -0.904318662455 a.u.
  Convergence information after    12 iterations: 
  Largest element of residual vector : -0.11440551E-04.
  Largest element of DIIS residual   : -0.76177834E-05.
   The total correlation energy is -0.904319870433 a.u.
  Convergence information after    13 iterations: 
  Largest element of residual vector :  0.10609122E-04.
  Largest element of DIIS residual   : -0.54499968E-05.
   The total correlation energy is -0.904320238360 a.u.
  Convergence information after    14 iterations: 
  Largest element of residual vector :  0.25542800E-05.
  Largest element of DIIS residual   :  0.18234086E-05.
   The total correlation energy is -0.904320150392 a.u.
  Convergence information after    15 iterations: 
  Largest element of residual vector :  0.16261643E-05.
  Largest element of DIIS residual   :  0.12003600E-05.
   The total correlation energy is -0.904320312446 a.u.
  Convergence information after    16 iterations: 
  Largest element of residual vector :  0.74669787E-06.
  Largest element of DIIS residual   :  0.47354709E-06.
   The total correlation energy is -0.904320196644 a.u.
  Convergence information after    17 iterations: 
  Largest element of residual vector :  0.47268728E-06.
  Largest element of DIIS residual   :  0.35734351E-06.
   The total correlation energy is -0.904320185608 a.u.
  Convergence information after    18 iterations: 
  Largest element of residual vector : -0.26309736E-06.
  Largest element of DIIS residual   : -0.24750889E-06.
   The total correlation energy is -0.904320171178 a.u.
  Convergence information after    19 iterations: 
  Largest element of residual vector :  0.12443447E-06.
  Largest element of DIIS residual   :  0.73316555E-07.
   The total correlation energy is -0.904320160945 a.u.
  Convergence information after    20 iterations: 
  Largest element of residual vector : -0.82401089E-07.
  Largest element of DIIS residual   : -0.29495071E-07.
   The total correlation energy is -0.904320157700 a.u.
  Convergence information after    21 iterations: 
  Largest element of residual vector : -0.26353191E-07.
  Largest element of DIIS residual   : -0.16811340E-07.
   The total correlation energy is -0.904320157798 a.u.
  Convergence information after    22 iterations: 
  Largest element of residual vector :  0.97185297E-08.
  Largest element of DIIS residual   : -0.10045562E-07.
   The total correlation energy is -0.904320157352 a.u.
  Convergence information after    23 iterations: 
  Largest element of residual vector :  0.92161767E-08.
  Largest element of DIIS residual   :  0.43887405E-08.
   The total correlation energy is -0.904320158070 a.u.
  Convergence information after    24 iterations: 
  Largest element of residual vector :  0.59926352E-08.
  Largest element of DIIS residual   :  0.19919355E-08.
   The total correlation energy is -0.904320158204 a.u.
  Convergence information after    25 iterations: 
  Largest element of residual vector :  0.31415231E-08.
  Largest element of DIIS residual   :  0.11237330E-08.
   The total correlation energy is -0.904320158338 a.u.
  Convergence information after    26 iterations: 
  Largest element of residual vector :  0.66476877E-09.
  Largest element of DIIS residual   :  0.52193265E-09.
   The total correlation energy is -0.904320158343 a.u.
  Convergence information after    27 iterations: 
[...]
 term  0.449095850595046     
 final tnorm  0.754898503607963     
  norm contr. I: |<0|L dT/dx|0>|^2   0.000000000000000E+000
  norm contr. II: <0|[nabla(1+L)e-T][nabla e^T]|0>  0.449095850595046     
  total norm contribution  0.449095850595046     
 oo  2.198918915365016E-003
 vv  -1.50516658097085     
 vo -3.373912987674400E-002
  Correlated perturbed 1-el contribution to DBOC  -1.53670679193223       cm**-1
  SUM_I |dc_I/dx|^2 contribution to DBOC  0.773335110239880       cm**-1
 
 
  The total diagonal Born-Oppenheimer correction (DBOC) is:      0.0087710685 a.u.
  The total diagonal Born-Oppenheimer correction (DBOC) is:       1925.027025 cm-1
 
 Total CC energy including DBOC  -535.633757922231     
 First-order density matrix is being calculated  (Symmetry block 2, perturbation   3)
 Calculation of the contributions of <pq||rs> to dI(i,j)/dx required   3.4 seconds.
 Calculation of the contributions of <pq||rs> to dI(a,b)/dx required   9.8 seconds.
 Calculation of the contributions of <pq||rs> to dI(i,a)/dx required   6.5 seconds.
 First-order Z-vector equations are solved for 1 perturbation.
 Convergence reached after  23 iterations.
        U*G(pq,rs) contribution is being calculated
             (Symmetry block 2, perturbation   3)

 CCSD contribution to force constants 

        0.0000000000        0.0000000000        0.0000000000
        0.0000000000        0.0000000000        0.0000000000
        0.0000000000        0.0000000000        0.0000000000
        0.0000000000        0.0000000000        0.0000000000
        0.0000000000        0.0000000000        0.0000000000
        0.0000000000        0.0000000000        0.0000000000
        0.0000000000        0.0000000000        0.0000000000
        0.0000000000        0.0000000000        0.0000000000
        0.0000000000        0.0000000000        0.0000000000
        0.0000000000        0.0000000000        0.0000000000
        0.0000000000        0.0000000000        0.0000000000
        0.0000000000        0.0000000000        0.0000000000
        0.0000000000        0.0000000000        0.0000000000
        0.0000000000        0.0000000000        0.0000000000
        0.0000000000        0.0000000000        0.0000000000
        0.0000000000        0.0000000000        0.0000000000
        0.0000000000        0.0000000000        0.0000000000
        0.0000000000        0.0000000000        0.0000000000
        0.0000000000        0.0000000000        0.0000000000
        0.0000000000        0.0000000000        0.0000000000
        0.0000000000        0.0000000000        0.0000000000
        0.0000000000        0.0000000000        0.0000000000
        0.0000000000        0.0000000000        0.0000000000
        0.0000000000        0.0000000000        0.0000000000
        0.0000000000        0.0000000000        0.0000000000
        0.0000000000        0.0000000000        0.0000000000
        0.0786791194        0.0083825459       -0.0870616653

 CCSD contribution to dipole derivatives 

        0.0000000000        0.0000000000        0.0000000000
        0.0000000000        0.0000000000        0.0000000000
        0.0000000000        0.0000000000        0.0000000000
        0.0000000000        0.0000000000        0.0000000000
        0.0000000000        0.0000000000        0.0000000000
        0.0000000000        0.0000000000        0.0000000000
        0.0000000000        0.0000000000        0.0000000000
        0.0000000000        0.0000000000        0.0000000000
        0.0000000000        0.0000000000        0.0238676140
 @CHECKOUT-I, Total execution time (CPU/WALL):     1071.00/     265.99 seconds.
--executable xsdcc finished with status     0 in      266.16 seconds (walltime).
 --invoking executable--
/home/asmola/.local/bin/xanti
 @GETMEM-I,  Allocated    3814 MB of main memory.
 CCSD MO derivative gammas will be sorted to Mulliken order.
 @CHECKOUT-I, Total execution time (CPU/WALL):        6.25/       4.92 seconds.
--executable xanti finished with status     0 in        5.07 seconds (walltime).
 --invoking executable--
/home/asmola/.local/bin/xbcktrn
 @GETMEM-I,  Allocated    3814 MB of main memory.
 CCSD MO derivative gammas will be transformed to the AO basis.
 @CHECKOUT-I, Total execution time (CPU/WALL):       11.63/       2.73 seconds.
--executable xbcktrn finished with status     0 in        2.81 seconds (walltime).
 --invoking executable--
/home/asmola/.local/bin/xvdint
 @GETMEM-I,  Allocated    3814 MB of main memory.
 One- and two-electron integral derivatives are calculated
 for RHF-CC/MBPT hessians and dipole derivatives.
 Spherical gaussians are used.
  magnet F F
 Evaluation of 2el integral derivatives

                      Two-electron integral gradient
                      ------------------------------

                         O #1 x     0.0000000000
                         O #1 y     0.0000000000
                         H #2 x     0.0000000000
                         H #2 y     0.0000000000
                         CL#3 x     0.0000000000
                         CL#3 y     0.0000000000


 O #1       0.0000000000            0.0000000000           -0.0862029426
 H #2       0.0000000000            0.0000000000           -0.0004128090
 CL#3       0.0000000000            0.0000000000            0.0866157516


 Evaluation of 2e integral derivatives required  126.65 seconds.
  contribution to Hessian
        0.0000000000        0.0000000000        0.0000000000
        0.0000000000        0.0000000000        0.0000000000
       -0.0862029426       -0.0004128090        0.0866157516
 @CHECKOUT-I, Total execution time (CPU/WALL):      126.76/      22.17 seconds.
--executable xvdint finished with status     0 in       22.28 seconds (walltime).
 --invoking executable--
/home/asmola/.local/bin/xanti
 @GETMEM-I,  Allocated    3814 MB of main memory.
 CCSD MO gammas will be sorted to Mulliken order.
 @CHECKOUT-I, Total execution time (CPU/WALL):        9.16/      14.98 seconds.
--executable xanti finished with status     0 in       15.08 seconds (walltime).
 --invoking executable--
/home/asmola/.local/bin/xbcktrn
 @GETMEM-I,  Allocated    3814 MB of main memory.
 CCSD MO gammas will be transformed to the AO basis.
 @CHECKOUT-I, Total execution time (CPU/WALL):       20.68/       4.07 seconds.
--executable xbcktrn finished with status     0 in        4.15 seconds (walltime).
 --invoking executable--
/home/asmola/.local/bin/xvdint
 @GETMEM-I,  Allocated    3814 MB of main memory.
 One- and two-electron integral derivatives are calculated
 for RHF-CC/MBPT hessians and dipole derivatives.
 Spherical gaussians are used.
  magnet F F

                     Kinetic energy integral gradient
                     --------------------------------

                         O #1 x     0.3257842285
                         O #1 y    -0.0931425376
                         H #2 x     0.0333057882
                         H #2 y     0.0737488516
                         CL#3 x    -0.3590900167
                         CL#3 y     0.0193936860


 O #1       0.3257842285           -0.0931425376            0.0000000000
 H #2       0.0333057882            0.0737488516            0.0000000000
 CL#3      -0.3590900167            0.0193936860            0.0000000000



                   Nuclear attraction integral gradient
                   ------------------------------------

                         O #1 x   -25.7554005535
                         O #1 y     4.4150843574
                         H #2 x    -1.7659233251
                         H #2 y    -2.7724305687
                         CL#3 x    27.5213238786
                         CL#3 y    -1.6426537887


 O #1     -25.7554005535            4.4150843574            0.0000000000
 H #2      -1.7659233251           -2.7724305687            0.0000000000
 CL#3      27.5213238786           -1.6426537887            0.0000000000



                      Reorthonormalization gradient
                      -----------------------------

                         O #1 x     0.0000000000
                         O #1 y     0.0000000000
                         H #2 x     0.0000000000
                         H #2 y     0.0000000000
                         CL#3 x     0.0000000000
                         CL#3 y     0.0000000000


 O #1       0.0000000000            0.0000000000            0.0000000000
 H #2       0.0000000000            0.0000000000            0.0000000000
 CL#3       0.0000000000            0.0000000000            0.0000000000



                     Kinetic energy integral Hessian
                     -------------------------------


           Symmetry 1

           O #1 x      O #1 y      H #2 x      H #2 y      CL#3 x      CL#3 y

 O #1 x    0.385521
 O #1 y    0.005540   -0.164735
 H #2 x    0.007523   -0.049758   -0.012721
 H #2 y   -0.049758   -0.067057    0.048148    0.068473
 CL#3 x   -0.393044    0.044219    0.005199    0.001611    0.387845
 CL#3 y    0.044219    0.231792    0.001611   -0.001415   -0.045829   -0.230376


           Symmetry 2

           O #1 z      H #2 z      CL#3 z

 O #1 z   -0.254515
 H #2 z    0.035051   -0.034059
 CL#3 z    0.219464   -0.000992   -0.218472




           O #1 x      O #1 y      O #1 z      H #2 x      H #2 y      H #2 z

 O #1 x    0.385521
 O #1 y    0.005540   -0.164735
 O #1 z    0.000000    0.000000   -0.254515

 H #2 x    0.007523   -0.049758    0.000000   -0.012721
 H #2 y   -0.049758   -0.067057    0.000000    0.048148    0.068473
 H #2 z    0.000000    0.000000    0.035051    0.000000    0.000000   -0.034059

 CL#3 x   -0.393044    0.044219    0.000000    0.005199    0.001611    0.000000
 CL#3 y    0.044219    0.231792    0.000000    0.001611   -0.001415    0.000000
 CL#3 z    0.000000    0.000000    0.219464    0.000000    0.000000   -0.000992


           CL#3 x      CL#3 y      CL#3 z

 CL#3 x    0.387845
 CL#3 y   -0.045829   -0.230376
 CL#3 z    0.000000    0.000000   -0.218472




                   Nuclear attraction integral Hessian
                   -----------------------------------


           Symmetry 1

           O #1 x      O #1 y      H #2 x      H #2 y      CL#3 x      CL#3 y

 O #1 x  -13.877640
 O #1 y    1.399880    9.752795
 H #2 x   -0.555303    0.878502    0.459448
 H #2 y    0.864056    0.756328   -1.196286   -0.947416
 CL#3 x   14.432943   -2.278382    0.095855    0.332230  -14.528798
 CL#3 y   -2.263936  -10.509123    0.317785    0.191088    1.946151   10.318035


           Symmetry 2

           O #1 z      H #2 z      CL#3 z

 O #1 z   10.917165
 H #2 z   -1.029494    1.173508
 CL#3 z   -9.887672   -0.144015   10.031686




           O #1 x      O #1 y      O #1 z      H #2 x      H #2 y      H #2 z

 O #1 x  -13.877640
 O #1 y    1.399880    9.752795
 O #1 z    0.000000    0.000000   10.917165

 H #2 x   -0.555303    0.878502    0.000000    0.459448
 H #2 y    0.864056    0.756328    0.000000   -1.196286   -0.947416
 H #2 z    0.000000    0.000000   -1.029494    0.000000    0.000000    1.173508

 CL#3 x   14.432943   -2.278382    0.000000    0.095855    0.332230    0.000000
 CL#3 y   -2.263936  -10.509123    0.000000    0.317785    0.191088    0.000000
 CL#3 z    0.000000    0.000000   -9.887672    0.000000    0.000000   -0.144015


           CL#3 x      CL#3 y      CL#3 z

 CL#3 x  -14.528798
 CL#3 y    1.946151   10.318035
 CL#3 z    0.000000    0.000000   10.031686




                Highest order reorthonormalization Hessian
                ------------------------------------------


           Symmetry 1

           O #1 x      O #1 y      H #2 x      H #2 y      CL#3 x      CL#3 y

 O #1 x    0.000000
 O #1 y    0.000000    0.000000
 H #2 x    0.000000    0.000000    0.000000
 H #2 y    0.000000    0.000000    0.000000    0.000000
 CL#3 x    0.000000    0.000000    0.000000    0.000000    0.000000
 CL#3 y    0.000000    0.000000    0.000000    0.000000    0.000000    0.000000


           Symmetry 2

           O #1 z      H #2 z      CL#3 z

 O #1 z    0.000000
 H #2 z    0.000000    0.000000
 CL#3 z    0.000000    0.000000    0.000000




           O #1 x      O #1 y      O #1 z      H #2 x      H #2 y      H #2 z


           CL#3 x      CL#3 y      CL#3 z




                Electronic contributions to dipole moment
                -----------------------------------------

                               au             Debye

                    x      2.11741159      5.38192436
                    y      0.88433561      2.24775731

  Conversion factor used: 1 a.u. =   2.54174691 Debye 



   Electronic contributions to static part of dipole moment derivatives
   --------------------------------------------------------------------


                     Total dipole moment derivatives
                     -------------------------------


           Symmetry 1
                              Ex             Ey

               O #1 x    -8.61664763    -0.07866856
               O #1 y    -0.29085731    -8.67638125
               H #2 x    -0.63485082     0.04924940
               H #2 y     0.32103426    -0.54158825
               CL#3 x   -16.74850154     0.02941916
               CL#3 y    -0.03017695   -16.78203050

           Symmetry 2
                              Ez

               O #1 z    -8.36823835
               H #2 z    -0.79999873
               CL#3 z   -16.83176291



                       Ex          Ey          Ez

      O #1    x   -8.616648   -0.078669    0.000000
      O #1    y   -0.290857   -8.676381    0.000000
      O #1    z    0.000000    0.000000   -8.368238

      H #2    x   -0.634851    0.049249    0.000000
      H #2    y    0.321034   -0.541588    0.000000
      H #2    z    0.000000    0.000000   -0.799999

      CL#3    x  -16.748502    0.029419    0.000000
      CL#3    y   -0.030177  -16.782031    0.000000
      CL#3    z    0.000000    0.000000  -16.831763

 Evaluation of 1e integral derivatives required    1.60 seconds.
 Evaluation of 2el integral derivatives

                      Two-electron integral gradient
                      ------------------------------

                         O #1 x    12.1743978107
                         O #1 y    -2.3133540227
                         H #2 x     0.9064354288
                         H #2 y     1.5982959121
                         CL#3 x   -13.0808332395
                         CL#3 y     0.7150581106


 O #1      12.1743978107           -2.3133540227            0.0000000000
 H #2       0.9064354288            1.5982959121            0.0000000000
 CL#3     -13.0808332395            0.7150581106            0.0000000000


 Evaluation of 2e integral derivatives required  297.44 seconds.

                            Molecular gradient
                            ------------------

                         O #1 x    -0.1275694414
                         O #1 y     0.1418238491
                         H #2 x    -0.0537646653
                         H #2 y    -0.1325978267
                         CL#3 x     0.1813341067
                         CL#3 y    -0.0092260224


 O #1      -0.1275694414            0.1418238491            0.0000000000
 H #2      -0.0537646653           -0.1325978267            0.0000000000
 CL#3       0.1813341067           -0.0092260224            0.0000000000


  Molecular gradient norm 0.300E+00

                            Molecular hessian
                            -----------------


           Symmetry 1

           O #1 x      O #1 y      H #2 x      H #2 y      CL#3 x      CL#3 y

 O #1 x    2.008207
 O #1 y    0.271482    1.241443
 H #2 x   -0.349230   -0.952061    0.268369
 H #2 y   -0.854909   -2.354305    0.847729    2.236685
 CL#3 x   -1.658977    1.147033   -0.033300   -0.094167    1.692277
 CL#3 y    0.583427    1.112862   -0.004553   -0.008080   -0.578874   -1.104781


           Symmetry 2

           O #1 z      H #2 z      CL#3 z

 O #1 z    0.188794
 H #2 z   -0.076137    0.037073
 CL#3 z   -0.112657    0.009500    0.103158




           O #1 x      O #1 y      O #1 z      H #2 x      H #2 y      H #2 z

 O #1 x    2.008207
 O #1 y    0.271482    1.241443
 O #1 z    0.000000    0.000000    0.188794

 H #2 x   -0.349230   -0.952061    0.000000    0.268369
 H #2 y   -0.854909   -2.354305    0.000000    0.847729    2.236685
 H #2 z    0.000000    0.000000   -0.076137    0.000000    0.000000    0.037073

 CL#3 x   -1.658977    1.147033    0.000000   -0.033300   -0.094167    0.000000
 CL#3 y    0.583427    1.112862    0.000000   -0.004553   -0.008080    0.000000
 CL#3 z    0.000000    0.000000   -0.112657    0.000000    0.000000    0.009500


           CL#3 x      CL#3 y      CL#3 z

 CL#3 x    1.692277
 CL#3 y   -0.578874   -1.104781
 CL#3 z    0.000000    0.000000    0.103158




                           Total dipole moment
                           -------------------

                               au             Debye

                    x     -0.08528822     -0.21678106
                    y     -0.53342053     -1.35581998

  Conversion factor used: 1 a.u. =   2.54174691 Debye 



                     Total dipole moment derivatives
                     -------------------------------


           Symmetry 1
                              Ex             Ey

               O #1 x     0.26718299     0.30843240
               O #1 y     0.22813282     0.10695998
               H #2 x    -0.00980760    -0.18455601
               H #2 y    -0.30848471    -0.19667297
               CL#3 x    -0.25737561    -0.12387664
               CL#3 y     0.08035249     0.08971331

           Symmetry 2
                              Ez

               O #1 z    -0.20554442
               H #2 z     0.16522545
               CL#3 z     0.04031886



                       Ex          Ey          Ez

      O #1    x    0.267183    0.308432    0.000000
      O #1    y    0.228133    0.106960    0.000000
      O #1    z    0.000000    0.000000   -0.205544

      H #2    x   -0.009808   -0.184556    0.000000
      H #2    y   -0.308485   -0.196673    0.000000
      H #2    z    0.000000    0.000000    0.165225

      CL#3    x   -0.257376   -0.123877    0.000000
      CL#3    y    0.080352    0.089713    0.000000
      CL#3    z    0.000000    0.000000    0.040319

  Molecular gradient does not satisfy rotational invariance condition.
   rotational invariance in yz-plane :        0.0000E+00
   rotational invariance in xz-plane :        0.0000E+00
   rotational invariance in xy-plane :        -.2479E-01
 @CHECKOUT-I, Total execution time (CPU/WALL):      299.18/      43.64 seconds.
--executable xvdint finished with status     0 in       43.75 seconds (walltime).
 --invoking executable--
/home/asmola/.local/bin/xjoda
  @GTFLGS-I, Hessian will be transformed to curvilinear coordinates.
  @GTFLGS-I, Hessian will be transformed to curvilinear coordinates.
  igrd and ihes are                      0                     1
  gradient from JOBARC 
  -0.127569441417882   0.141823849085257   0.000000000000000
  -0.053764665279257  -0.132597826687115   0.000000000000000
   0.181334106697137  -0.009226022398139   0.000000000000000
 
  @PROJFCM-I, Projecting force constant matrix onto totally symmetric subspace.
  Largest difference between matrix elements of symmetrized
  and unsymmetrized FCM :     0.0000000000E+00.
 
  Summary of diagonal Born-Oppenheimer correction at the correlated level
  The total diagonal Born-Oppenheimer correction (DBOC) is:      0.0087710685 a.u.
  The total diagonal Born-Oppenheimer correction (DBOC) is:       1925.027025 cm-1
  The total diagonal Born-Oppenheimer correction (DBOC) is:            23.028 kJ/mole
  hellooooooo 
  readis is  F
 
 @CHECKOUT-I, Total execution time (CPU/WALL):        0.02/       0.08 seconds.
--executable xjoda finished with status     0 in        0.29 seconds (walltime).
  The final electronic energy is      -535.633757922230870 a.u. 
  This computation required                         2674.91 seconds (walltime).
