 --invoking executable--
/home/asmola/.local/bin/xjoda


   *************************************************************************
         <<<     CCCCCC     CCCCCC   |||     CCCCCC     CCCCCC   >>>
       <<<      CCC        CCC       |||    CCC        CCC         >>>
      <<<      CCC        CCC        |||   CCC        CCC            >>>
    <<<        CCC        CCC        |||   CCC        CCC              >>>
      <<<      CCC        CCC        |||   CCC        CCC            >>>
       <<<      CCC        CCC       |||    CCC        CCC         >>>
         <<<     CCCCCC     CCCCCC   |||     CCCCCC     CCCCCC   >>>
   *************************************************************************

     ****************************************************************
     * CFOUR Coupled-Cluster techniques for Computational Chemistry *
     ****************************************************************
 

   Department of Chemistry                Institut fuer Physikalische Chemie
   University of Florida                  Universitaet Mainz
   Gainesville, FL 32611, USA             D-55099 Mainz, Germany

   Department of Chemistry                Fakultaet fuer Chemie und Biowiss.
   Johns Hopkins University               Karlsruher Institut fuer Technologie
   Baltimore, MD 21218, USA               D-76131 Karlsruhe, Germany

   Department of Chemistry                Department of Physical Chemistry
   Southern Methodist University          Eotvos Lorand University
   Dallas, TX 75275, USA                  H-1053 Budapest, Hungary

 
                       Version 2.1
 
                     vincent.theory.phys.ucl.ac.uk                     
                     Thu 30 Jan 05:21:36 GMT 2025                      
                     integer*8 version is running
 
********************************************************************************
*                          Input from ZMAT file                                *
********************************************************************************
Hypochlorous acid DBOC calculation                                              
O                                                                               
H 1 ROH                                                                         
CL 1 ROCL 2 A                                                                   
                                                                                
ROH=1.2000000000000004                                                          
ROCL=1.683                                                                      
A=107.0                                                                         
                                                                                
                                                                                
*CFOUR(CALC=CCSD,BASIS=AUG-PCVTZ,SCF_CONV=10                                    
CC_CONV=10,DBOC=ON,MEMORY=500000000)                                            
********************************************************************************
  @GTFLGS-I, Hessian will be transformed to curvilinear coordinates.
    -------------------------------------------------------------------
                    CFOUR Control Parameters 
    -------------------------------------------------------------------
        External           Internal           Value            Units
          Name               Name
    -------------------------------------------------------------------
       ABCDTYPE             IABCDT         STANDARD    [  0]    ***   
       ANHARMONIC           IANHAR         OFF         [  0]    ***   
       ANH_ALGORIT          IANALG         STANDARD    [  0]    ***   
       ANH_DERIVAT          IANDER         SECOND      [  1]    ***   
       ANH_MODE             ANHMOD         VIBRATION   [  0]    ***   
       ANH_STEPSIZ          ICUBST             50000          x 10-6  
       ANH_SYMMETR          IANHSM         ABELIAN     [  0]    ***   
       AO_LADDERS           IAOLAD         SINGLEPASS  [  1]    ***   
       AV_SCF               IAVSCF         OFF         [  0]    ***   
       BASIS                IBASIS         AUG-PCVTZ   [ 51]    ***   
       BOTHVECTORS          BOTHVC         OFF         [  0]    ***   
       BOX_POTENT           IPIAB          OFF         [  0]    ***   
       BREIT                IBREIT         OFF         [  0]    ***   
       BRUCK_CONV           IBRTOL          10D-  4             ***   
       BRUECKNER            IBRKNR         OFF         [  0]    ***   
       BUFFERSIZE           IBUFFS              4096            ***   
       CACHE_RECS           ICHREC             10               ***   
       CALCLEVEL            ICLLVL         CCSD        [ 10]    ***   
       CCORBOPT             ICCORB         OFF         [  0]  x 0.01  
       CC_CONV              ICCCNV          10D- 10             ***   
       CC_EXPORDER          ICCEOR              5               ***   
       CC_EXTRAPOL          ICCEXT         DIIS        [  1]    ***   
       CC_GUESS             ICCGES         MP2         [  0]    ***   
       CC_MAXCYC            ICCCYC            100              cycles 
       CC_PROGRAM           ICCPRO         VCC         [  0]    ***   
       CHARGE               ICHRGE              0               ***   
       CHOLESKY             ICHOLE         OFF         [  0]    ***   
       CIS_CONV             ICISTL              5               ***   
       COMM_SIZE            IPSIZE            ***               ***   
       CONSTANT             ICONST         OLD         [  1]    ***   
       CONTINUUM            ICONTU         NONE        [  0]    ***   
       CONTRACTION          ICNTYP         GENERAL     [  1]    ***   
       COORDINATES          ICOORD         INTERNAL    [  0]    ***   
       CPHF_CONVER          ICPHFT          10D- 16             ***   
       CPHF_MAXCYC          ICPHFC             64              cycles 
       CUBIC                ICUBIC         OFF         [  0]    ***   
       CURVILINEAR          ICURVY         ON          [  1]    ***   
       DBOC                 IDBOC          ON          [  1]    ***   
       DCT                  IDCT           OFF         [  0]    ***   
       DERIV_LEV            IDRLVL         SECOND      [  2]    ***   
       DEVMEM_SIZE          IDVMEM          50000000           MByte  
       DIAG_MRCC            IEOMST          10D-  0             ***   
       DIFF_TYPE            IDIFTY         RELAXED     [  0]    ***   
       DIRECT               IDIRCT         OFF         [  0]    ***   
       DROPMO               IDRPMO      NONE         
       ECP                  IECP           OFF         [  0]    ***   
       EIGENVECTOR          IVEC                1               ***   
       EL_ANHARM            IELANH         OFF         [  0]    ***   
       EOMFOLLOW            IEOMSR         ENERGY      [  0]    ***   
       EOMIP                IEOMIP         OFF         [  0]    ***   
       EOMLEVEL             HBARFM         SAME        [  0]    ***   
       EOM_MRCC             IMRCCE         NEW         [  1]    ***   
       EOM_NONIT            EOMNON         OFF         [  0]    ***   
       EOM_NSING            IEOMSI          10D-  0             ***   
       EOM_NSTATES          IMRCCD         DAVIDSON    [  0]    ***   
       EOM_NTRIP            IEOMTR          10D-  0             ***   
       EOM_ORDER            IEXORD         ENERGY      [  0]    ***   
       EOM_PROPSTA          IEOMST              0               ***   
       ESTATE_CONV          IEXTOL          10D-  5             ***   
       ESTATE_DIAG          IEXDIG         ITERATIVE   [  0]    ***   
       ESTATE_LOCK          IESLOC         ON          [  1]    ***   
       ESTATE_MAXC          IEXMXC             40               ***   
       ESTATE_PROP          IEXPRP         OFF         [  0]    ***   
       EVAL_HESS            IRECAL              0            # of cyc.
       EXCITATION           IEXCIT              0               ***   
       EXCITE               IEXCIT         NONE        [  0]    ***   
       EXTERN_POT           IEXPOT         OFF         [  0]    ***   
       FCGRADNEW            IFCGNW         OFF         [  0]    ***   
       FC_FIELD             IFINFC              0             x 10-6  
       FD_CALTYPE           IFDCAL         GRADONLY    [  0]    ***   
       FD_PROJECT           IFDPRJ         OFF         [  1]    ***   
       FD_STEPSIZE          IDISFD              0            10-4 bohr
       FD_USEGROUP          IFDGRP         FULL        [  0]    ***   
       FILE_RECSIZ          IFLREC              4096           words  
       FINITE_PERT          IFIPER              0             x 10-6  
       FIXGEOM              IFIXGM         OFF         [  0]    ***   
       FOCK                 IFOCK          AO          [  1]    ***   
       FREQ_ALGORI          IVIALG         STANDARD    [  0]    ***   
       FROZEN_CORE          IFROCO         OFF         [  0]    ***   
       GAMMA_ABCD           IGABCD         STORE       [  0]    ***   
       GAMMA_ABCI           IGABCI         STORE       [  0]    ***   
       GENBAS_1             IGNBS1              0               ***   
       GENBAS_2             IGNBS2              0               ***   
       GENBAS_3             IGNBS3              0               ***   
       GENBAS_4             IGNBS4              0               ***   
       GEO_CONV             ICONTL              5              H/bohr 
       GEO_MAXCYC           IOPTCY             50               ***   
       GEO_MAXSTEP          IMXSTP            300            millibohr
       GEO_METHOD           INR            SINGLE_POINT[  5]    ***   
       GIAO                 IGIAO          OFF         [  1]    ***   
       GIMIC                IGIMIC         OFF         [  0]    ***   
       GRID                 IGRID          OFF         [  0]    ***   
       GRID_ALGO            IGALGO         SERIAL      [  0]    ***   
       GUESS                IGUESS         MOREAD      [  0]    ***   
       HBAR                 IHBAR          OFF         [  0]    ***   
       HESS_TYPE            IHESTP         SCF         [  0]    ***   
       HF2_FILE             IHF2Fl         USE         [  1]    ***   
       HFSTABILITY          ISTABL         OFF         [  0]    ***   
       INCORE               INCORE         OFF         [  0]    ***   
       INPUT_MRCC           IMRCC          ON          [  1]    ***   
       INTEGRALS            INTTYP         VMOL        [  1]    ***   
       JODA_PRINT           IJPRNT              0               ***   
       KEYWORD_OUT          IDMPKW         NO          [  0]    ***   
       LINDEP_TOL           ILINDP              8               ***   
       LINEQ_CONV           IZTACN          10D-  7           cycles  
       LINEQ_EXPOR          ILMAXD              5               ***   
       LINEQ_MAXCY          ILMAXC            100               ***   
       LINEQ_TYPE           ILTYPE         DIIS        [  1]    ***   
       LOCK_ORBOCC          ILOCOC         OFF         [  0]    ***   
       MEMORY_SIZE          IMEMSZ         500000000           words  
       MEM_UNIT             IMEMU          INTEGERWORDS[  0]    ***   
       MRCC                 IMRCCC         OFF         [  0]    ***   
       MULTIPLICTY          IMULTP              1               ***   
       NACOUPLING           IVCOUP         OFF         [  0]    ***   
       NEGEVAL              IDIE           ABORT       [  0]    ***   
       NEWNORM              INEWNO         OFF         [  0]    ***   
       NON-HF               INONHF         OFF         [  0]    ***   
       NTOP_TAMP            ITOPT2             15               ***   
       NUC_MODEL            INUCMO         POINT       [  0]    ***   
       OCCUPATION           IOCCU   ESTIMATED BY SCF 
       OPEN-SHELL           IOPEN          SPIN-ORBITAL[  0]    ***   
       OPTVIB               IOPTVB         OFF         [  0]    ***   
       ORBITALS             IORBTP         STANDARD    [  0]    ***   
       PARALLEL             IPARAL         ON          [  1]    ***   
       PARA_INT             IPINTS         ON          [  1]    ***   
       PARA_PRINT           IPPRIN              0               ***   
       PERT_ORB             IPTORB         STANDARD    [  0]    ***   
       POINTS               IGRDFD              0               ***   
       PRINT                IPRNT               0               ***   
       PROPS                IPROPS         OFF         [  0]    ***   
       PROP_INTEGR          IINTYP         INTERNAL    [  0]    ***   
       PSI                  IPSI           OFF         [  0]    ***   
       QC_ALG               IQCALG         FLM         [  0]    ***   
       QC_LINALG            IQCLIN         TRIDIAG     [  2]    ***   
       QC_MAXCYC            IQCMAX          10D-100           cycles  
       QC_MAXSCFCY          IQCMSC          10D- 15           cycles  
       QC_RTRUST            IQCRTR          10D-  0           x 10-3  
       QC_SKIPSCF           IQCSKI         OFF         [  0]    ***   
       QC_START             IQCSTA          10D-  1             ***   
       QRHFGUESS            IQGUES         OFF         [  0]    ***   
       QUARTIC              IQUART         OFF         [  0]    ***   
       RAMAN_INT            IRAMIN         OFF         [  0]    ***   
       RAMAN_ORB            IRAMRE         UNRELAXED   [  0]    ***   
       RDO                  IRDOFM         ON          [  1]    ***   
       REDUCE_REPR          REDREP         Ir          [  0]    ***   
       REFERENCE            IREFNC         RHF         [  0]    ***   
       RELATIVIST           IRELAT         OFF         [  0]    ***   
       RELAX_DENS           IRDENS         ON          [  1]    ***   
       RESET_FLAGS          IRESET         OFF         [  0]    ***   
       RESTART_CC           ICCRES         OFF         [  0]    ***   
       ROT_EVEC             ROTVEC              0               ***   
       SAVE_INTS            ISVINT         OFF         [  0]    ***   
       SCALE_ON             ISTCRT              0               ***   
       SCF_CONV             ISCFCV          10D- 10             ***   
       SCF_DAMPING          IDAMP               0             x 10-3  
       SCF_EXPORDE          IRPPOR              6               ***   
       SCF_EXPSTAR          IRPPLS              8               ***   
       SCF_EXTRAPO          IRPP           ON          [  1]    ***   
       SCF_MAXCYC           ISCFCY            150              cycles 
       SCF_NOSTOP           ISCFST         OFF         [  0]    ***   
       SCF_PRINT            ISCFPR              0               ***   
       SCF_PROG             ISCFPR         SCF         [  0]    ***   
       SD_FIELD             IFINSD              0             x 10-6  
       SOPERT               IPERSO         OFF         [  0]    ***   
       SPHERICAL            IDFGHI         ON          [  1]    ***   
       SPINORBIT            ISOCAL         OFF         [  0]    ***   
       SPINROTATIO          ISRCON         OFF         [  0]    ***   
       SPIN_FLIP            ISPFLP         OFF         [  0]    ***   
       SPIN_ORBIT           ISPORB         OFF         [  0]    ***   
       SPIN_SCAL            ISCSMP         OFF         [  0]    ***   
       STEEPSCALE           ISTPSC              1000          x 10-3  
       SUBGROUP             ISUBGP         DEFAULT     [  0]    ***   
       SUBGRPAXIS           ISBXYZ         X           [  0]    ***   
       SYMMETRY             ISYM           ON          [  0]    ***   
       SYM_CHECK            ISYMCK         OVERRIDE    [  1]    ***   
       T3_EXTRAPOL          IT3EXT         OFF         [  0]    ***   
       T4_EXTRAPOL          IT4EXP         OFF         [  0]    ***   
       TAMP_SUM             IEVERY              5               ***   
       TESTSUITE            ITESTS         OFF         [  0]    ***   
       THERMOCH             ITHERM         OFF         [  0]    ***   
       TOL_CHOLESK          ITOLCH          10D-  4             ***   
       TRANGRAD             IRESRM         OFF         [  0]    ***   
       TRANS_INV            ITRAIN         IGNORE      [  1]    ***   
       TREAT_PERT           ITREAT         SIMULTANEOUS[  0]    ***   
       TRIP_ALGORI          ITRALG         NORMAL      [  0]    ***   
       UIJ_THRESHO          IUIJTH              1               ***   
       UNITS                IUNITS         ANGSTROM    [  0]    ***   
       UNOS                 IUNOS          OFF         [  0]    ***   
       UPDATE_HESS          IHUPDT         ON          [  1]    ***   
       VIBPHASE             ISETPH         STANDARD    [  0]    ***   
       VIBRATION            IVIB           ANALYTIC    [  1]    ***   
       VIB_ALGORIT          IGEALG         STANDARD    [  0]    ***   
       VNATORB              IVNORB         OFF         [  0]    ***   
       VTRAN                IVTRAN         FULL/PARTIAL[  0]    ***   
       XFIELD               IXEFLD              0             x 10-6  
       XFORM_TOL            IXFTOL          10D- 11             ***   
       YFIELD               IYEFLD              0             x 10-6  
       ZFIELD               IZEFLD              0             x 10-6  
       ZSCALE_EXP           IZEXPS         OFF         [  0]    ***   
    -------------------------------------------------------------------
   3 entries found in Z-matrix 
   Job Title : Hypochlorous acid DBOC calculation                                              
   There are  3 unique internal coordinates.
   Of these,  0 will be optimized.
   User supplied Z-matrix: 
--------------------------------------------------------------------------------
       SYMBOL    BOND      LENGTH    ANGLE     ANGLE     DIHED     ANGLE
                  TO      (ANGST)    WRT      (DEG)      WRT      (DEG)
--------------------------------------------------------------------------------
        O    
        H          1         ROH  
        CL         1         ROCL       2        A    
                  *Initial values for internal coordinates* 
                      Name             Value
                        ROH             1.2000000000
                        ROCL            1.6830000000
                        A             107.0000000000
--------------------------------------------------------------------------------
   Rotational constants (in cm-1): 
          0.4868176248             0.5044545580            13.9240404250
   Rotational constants (in MHz): 
      14594.4272792401         15123.1693064822        417432.2889109620
********************************************************************************
   The full molecular point group is C s .
   The largest Abelian subgroup of the full molecular point group is C s .
   The computational point group is C s .
********************************************************************************
--------------------------------------------------------------------------------
   Analysis of internal coordinates specified by Z-matrix 
--------------------------------------------------------------------------------
   *The nuclear repulsion energy is   50.141886364483817 a.u.
   *There are   3 degrees of freedom within the tot. symm. molecular subspace.
   *Z-matrix requests optimization of   0 coordinates.
   *The optimization is constrained.
   *The following   3 parameters can have non-zero 
    derivatives within the totally symmetric subspace:
             A    [ 3]  ROH  [ 1]  ROCL [ 2]
   *The following   0 parameters are to be optimized:

   *The following coordinates must be varied in an  unconstrained optimization.
             A    [ 3]  ROH  [ 1]  ROCL [ 2]
--------------------------------------------------------------------------------


 ----------------------------------------------------------------
         Coordinates used in calculation (QCOMP) 
 ----------------------------------------------------------------
 Z-matrix   Atomic            Coordinates (in bohr)
  Symbol    Number           X              Y              Z
 ----------------------------------------------------------------
     O         8        -2.12183466     0.15492760     0.00000000
     H         1        -2.89904097    -1.97539769     0.00000000
     CL       17         1.05408921    -0.01393236     0.00000000
 ----------------------------------------------------------------
 
   Interatomic distance matrix (Angstroms) 
 
                 O             H             CL   
                [ 1]        [ 2]        [ 3]
  O    [ 1]     0.00000
  H    [ 2]     1.20000     0.00000
  CL   [ 3]     1.68300     2.33526     0.00000
 rotcon2
   Rotational constants (in cm-1): 
         13.9240404250             0.5044545580             0.4868176248
   Rotational constants (in MHz): 
     417432.2889109635         15123.1693064822         14594.4272792401
  ECPDATA file not present.   Using default ECPDATA. 
  @GTFLGS-I, Hessian will be transformed to curvilinear coordinates.
  There are  157 basis functions.
 @CHECKOUT-I, Total execution time (CPU/WALL):        0.18/       0.27 seconds.
--executable xjoda finished with status     0 in        0.32 seconds (walltime).
 --invoking executable--
/home/asmola/.local/bin/xvmol
 SERIAL VERSION OF MOLECULE STARTED
********************************************************************************
                    INPUT FROM MOL FILE
********************************************************************************
INTGRL        1    0    1    0    0    0    0    0    0                         
         *** CFOUR Program System (Release V0.1) ***                            
Hypochlorous acid DBOC calculation                                              
    3    1 Z          0.10E-08              0    0                              
   9999.00      3.00                                                            
          8.00000000    1    4    1    1    1    1                              
O #1  -2.121834656842564   0.154927599350132   0.000000000000000                
   13    7                                                                      
   15330.0000000000       5.080000000000000E-004 -1.150000000000000E-004        
  0.000000000000000E+000  0.000000000000000E+000  0.000000000000000E+000        
  0.000000000000000E+000  0.000000000000000E+000                                
   2299.00000000000       3.929000000000000E-003 -8.950000000000000E-004        
  0.000000000000000E+000  0.000000000000000E+000  0.000000000000000E+000        
  0.000000000000000E+000  0.000000000000000E+000                                
   522.400000000000       2.024300000000000E-002 -4.636000000000000E-003        
  0.000000000000000E+000  0.000000000000000E+000  0.000000000000000E+000        
  0.000000000000000E+000  0.000000000000000E+000                                
   147.300000000000       7.918100000000000E-002 -1.872400000000000E-002        
  0.000000000000000E+000  0.000000000000000E+000  0.000000000000000E+000        
  0.000000000000000E+000  0.000000000000000E+000                                
   47.5500000000000       0.230687000000000      -5.846300000000000E-002        
  0.000000000000000E+000  0.000000000000000E+000  0.000000000000000E+000        
  0.000000000000000E+000  0.000000000000000E+000                                
   16.7600000000000       0.433118000000000      -0.136463000000000             
  0.000000000000000E+000  0.000000000000000E+000  0.000000000000000E+000        
  0.000000000000000E+000  0.000000000000000E+000                                
   6.20700000000000       0.350260000000000      -0.175740000000000             
  0.000000000000000E+000  0.000000000000000E+000  0.000000000000000E+000        
  0.000000000000000E+000  0.000000000000000E+000                                
   1.75200000000000       4.272800000000000E-002  0.160934000000000             
   1.00000000000000       0.000000000000000E+000  0.000000000000000E+000        
  0.000000000000000E+000  0.000000000000000E+000                                
  0.688200000000000      -8.154000000000000E-003  0.603418000000000             
  0.000000000000000E+000  0.000000000000000E+000  0.000000000000000E+000        
  0.000000000000000E+000  0.000000000000000E+000                                
  0.238400000000000       2.381000000000000E-003  0.378765000000000             
  0.000000000000000E+000   1.00000000000000       0.000000000000000E+000        
  0.000000000000000E+000  0.000000000000000E+000                                
   7.84500000000000       0.000000000000000E+000  0.000000000000000E+000        
  0.000000000000000E+000  0.000000000000000E+000   1.00000000000000             
  0.000000000000000E+000  0.000000000000000E+000                                
   21.0320000000000       0.000000000000000E+000  0.000000000000000E+000        
  0.000000000000000E+000  0.000000000000000E+000  0.000000000000000E+000        
   1.00000000000000       0.000000000000000E+000                                
  7.376000000000001E-002  0.000000000000000E+000  0.000000000000000E+000        
  0.000000000000000E+000  0.000000000000000E+000  0.000000000000000E+000        
  0.000000000000000E+000   1.00000000000000                                     
    8    6                                                                      
   34.4600000000000       1.592800000000000E-002  0.000000000000000E+000        
  0.000000000000000E+000  0.000000000000000E+000  0.000000000000000E+000        
  0.000000000000000E+000                                                        
   7.74900000000000       9.974000000000000E-002  0.000000000000000E+000        
  0.000000000000000E+000  0.000000000000000E+000  0.000000000000000E+000        
  0.000000000000000E+000                                                        
   2.28000000000000       0.310492000000000       0.000000000000000E+000        
  0.000000000000000E+000  0.000000000000000E+000  0.000000000000000E+000        
  0.000000000000000E+000                                                        
  0.715600000000000       0.491026000000000        1.00000000000000             
  0.000000000000000E+000  0.000000000000000E+000  0.000000000000000E+000        
  0.000000000000000E+000                                                        
  0.214000000000000       0.336337000000000       0.000000000000000E+000        
   1.00000000000000       0.000000000000000E+000  0.000000000000000E+000        
  0.000000000000000E+000                                                        
   15.1590000000000       0.000000000000000E+000  0.000000000000000E+000        
  0.000000000000000E+000   1.00000000000000       0.000000000000000E+000        
  0.000000000000000E+000                                                        
   57.4370000000000       0.000000000000000E+000  0.000000000000000E+000        
  0.000000000000000E+000  0.000000000000000E+000   1.00000000000000             
  0.000000000000000E+000                                                        
  5.974000000000000E-002  0.000000000000000E+000  0.000000000000000E+000        
  0.000000000000000E+000  0.000000000000000E+000  0.000000000000000E+000        
   1.00000000000000                                                             
    4    4                                                                      
   2.31400000000000        1.00000000000000       0.000000000000000E+000        
  0.000000000000000E+000  0.000000000000000E+000                                
  0.645000000000000       0.000000000000000E+000   1.00000000000000             
  0.000000000000000E+000  0.000000000000000E+000                                
   15.8580000000000       0.000000000000000E+000  0.000000000000000E+000        
   1.00000000000000       0.000000000000000E+000                                
  0.214000000000000       0.000000000000000E+000  0.000000000000000E+000        
  0.000000000000000E+000   1.00000000000000                                     
    2    2                                                                      
   1.42800000000000        1.00000000000000       0.000000000000000E+000        
  0.500000000000000       0.000000000000000E+000   1.00000000000000             
          1.00000000    1    3    1    1    1                                   
H #2  -2.899040968393207  -1.975397693717335   0.000000000000000                
    6    4                                                                      
   33.8700000000000       6.068000000000000E-003  0.000000000000000E+000        
  0.000000000000000E+000  0.000000000000000E+000                                
   5.09500000000000       4.530800000000000E-002  0.000000000000000E+000        
  0.000000000000000E+000  0.000000000000000E+000                                
   1.15900000000000       0.202822000000000       0.000000000000000E+000        
  0.000000000000000E+000  0.000000000000000E+000                                
  0.325800000000000       0.503903000000000        1.00000000000000             
  0.000000000000000E+000  0.000000000000000E+000                                
  0.102700000000000       0.383421000000000       0.000000000000000E+000        
   1.00000000000000       0.000000000000000E+000                                
  2.526000000000000E-002  0.000000000000000E+000  0.000000000000000E+000        
  0.000000000000000E+000   1.00000000000000                                     
    3    3                                                                      
   1.40700000000000        1.00000000000000       0.000000000000000E+000        
  0.000000000000000E+000                                                        
  0.388000000000000       0.000000000000000E+000   1.00000000000000             
  0.000000000000000E+000                                                        
  0.102000000000000       0.000000000000000E+000  0.000000000000000E+000        
   1.00000000000000                                                             
    2    2                                                                      
   1.05700000000000        1.00000000000000       0.000000000000000E+000        
  0.247000000000000       0.000000000000000E+000   1.00000000000000             
         17.00000000    1    4    1    1    1    1                              
CL#3   1.054089207750118  -0.013932355159425   0.000000000000000                
   18    8                                                                      
   456100.000000000       4.930000000000000E-005 -1.380000000000000E-005        
  4.200000000000000E-006  0.000000000000000E+000  0.000000000000000E+000        
  0.000000000000000E+000  0.000000000000000E+000  0.000000000000000E+000        
   68330.0000000000       3.830000000000000E-004 -1.073000000000000E-004        
  3.240000000000000E-005  0.000000000000000E+000  0.000000000000000E+000        
  0.000000000000000E+000  0.000000000000000E+000  0.000000000000000E+000        
   15550.0000000000       2.008500000000000E-003 -5.651000000000000E-004        
  1.711000000000000E-004  0.000000000000000E+000  0.000000000000000E+000        
  0.000000000000000E+000  0.000000000000000E+000  0.000000000000000E+000        
   4405.00000000000       8.385600000000000E-003 -2.361400000000000E-003        
  7.142000000000000E-004  0.000000000000000E+000  0.000000000000000E+000        
  0.000000000000000E+000  0.000000000000000E+000  0.000000000000000E+000        
   1439.00000000000       2.947030000000000E-002 -8.458900000000000E-003        
  2.567000000000000E-003  0.000000000000000E+000  0.000000000000000E+000        
  0.000000000000000E+000  0.000000000000000E+000  0.000000000000000E+000        
   520.400000000000       8.783249999999999E-002 -2.596380000000000E-002        
  7.885500000000000E-003  0.000000000000000E+000  0.000000000000000E+000        
  0.000000000000000E+000  0.000000000000000E+000  0.000000000000000E+000        
   203.100000000000       0.211473000000000      -6.863619999999999E-002        
  2.108670000000000E-002  0.000000000000000E+000  0.000000000000000E+000        
  0.000000000000000E+000  0.000000000000000E+000  0.000000000000000E+000        
   83.9600000000000       0.365364000000000      -0.141874000000000             
  4.422640000000000E-002  0.000000000000000E+000  0.000000000000000E+000        
  0.000000000000000E+000  0.000000000000000E+000  0.000000000000000E+000        
   36.2000000000000       0.340884000000000      -0.199319000000000             
  6.516700000000000E-002  0.000000000000000E+000  0.000000000000000E+000        
  0.000000000000000E+000  0.000000000000000E+000  0.000000000000000E+000        
   15.8300000000000       0.102133000000000      -1.956620000000000E-002        
  6.030100000000000E-003  0.000000000000000E+000  0.000000000000000E+000        
  0.000000000000000E+000  0.000000000000000E+000  0.000000000000000E+000        
   6.33400000000000       3.116800000000000E-003  0.499741000000000             
 -0.206495000000000       0.000000000000000E+000  0.000000000000000E+000        
  0.000000000000000E+000  0.000000000000000E+000  0.000000000000000E+000        
   2.69400000000000       1.057500000000000E-003  0.563736000000000             
 -0.405871000000000       0.000000000000000E+000  0.000000000000000E+000        
  0.000000000000000E+000  0.000000000000000E+000  0.000000000000000E+000        
  0.976800000000000      -3.780000000000000E-004  7.903250000000001E-002        
  7.595580000000000E-002   1.00000000000000       0.000000000000000E+000        
  0.000000000000000E+000  0.000000000000000E+000  0.000000000000000E+000        
  0.431300000000000       1.561000000000000E-004 -8.350900000000000E-003        
  0.725661000000000       0.000000000000000E+000  0.000000000000000E+000        
  0.000000000000000E+000  0.000000000000000E+000  0.000000000000000E+000        
  0.162500000000000      -5.140000000000000E-005  2.324600000000000E-003        
  0.394423000000000       0.000000000000000E+000   1.00000000000000             
  0.000000000000000E+000  0.000000000000000E+000  0.000000000000000E+000        
   15.0640000000000       0.000000000000000E+000  0.000000000000000E+000        
  0.000000000000000E+000  0.000000000000000E+000  0.000000000000000E+000        
   1.00000000000000       0.000000000000000E+000  0.000000000000000E+000        
   2.87400000000000       0.000000000000000E+000  0.000000000000000E+000        
  0.000000000000000E+000  0.000000000000000E+000  0.000000000000000E+000        
  0.000000000000000E+000   1.00000000000000       0.000000000000000E+000        
  5.910000000000000E-002  0.000000000000000E+000  0.000000000000000E+000        
  0.000000000000000E+000  0.000000000000000E+000  0.000000000000000E+000        
  0.000000000000000E+000  0.000000000000000E+000   1.00000000000000             
   12    7                                                                      
   663.300000000000       2.404500000000000E-003 -6.521000000000000E-004        
  0.000000000000000E+000  0.000000000000000E+000  0.000000000000000E+000        
  0.000000000000000E+000  0.000000000000000E+000                                
   156.800000000000       1.921480000000000E-002 -5.194500000000000E-003        
  0.000000000000000E+000  0.000000000000000E+000  0.000000000000000E+000        
  0.000000000000000E+000  0.000000000000000E+000                                
   49.9800000000000       8.850970000000000E-002 -2.469380000000000E-002        
  0.000000000000000E+000  0.000000000000000E+000  0.000000000000000E+000        
  0.000000000000000E+000  0.000000000000000E+000                                
   18.4200000000000       0.256020000000000      -7.281670000000000E-002        
  0.000000000000000E+000  0.000000000000000E+000  0.000000000000000E+000        
  0.000000000000000E+000  0.000000000000000E+000                                
   7.24000000000000       0.436927000000000      -0.134030000000000             
  0.000000000000000E+000  0.000000000000000E+000  0.000000000000000E+000        
  0.000000000000000E+000  0.000000000000000E+000                                
   2.92200000000000       0.350334000000000      -9.477420000000000E-002        
  0.000000000000000E+000  0.000000000000000E+000  0.000000000000000E+000        
  0.000000000000000E+000  0.000000000000000E+000                                
   1.02200000000000       5.854950000000000E-002  0.262289000000000             
   1.00000000000000       0.000000000000000E+000  0.000000000000000E+000        
  0.000000000000000E+000  0.000000000000000E+000                                
  0.381800000000000      -4.584200000000000E-003  0.564667000000000             
  0.000000000000000E+000  0.000000000000000E+000  0.000000000000000E+000        
  0.000000000000000E+000  0.000000000000000E+000                                
  0.130100000000000       2.269700000000000E-003  0.341250000000000             
  0.000000000000000E+000   1.00000000000000       0.000000000000000E+000        
  0.000000000000000E+000  0.000000000000000E+000                                
   9.48000000000000       0.000000000000000E+000  0.000000000000000E+000        
  0.000000000000000E+000  0.000000000000000E+000   1.00000000000000             
  0.000000000000000E+000  0.000000000000000E+000                                
   3.66800000000000       0.000000000000000E+000  0.000000000000000E+000        
  0.000000000000000E+000  0.000000000000000E+000  0.000000000000000E+000        
   1.00000000000000       0.000000000000000E+000                                
  4.190000000000000E-002  0.000000000000000E+000  0.000000000000000E+000        
  0.000000000000000E+000  0.000000000000000E+000  0.000000000000000E+000        
  0.000000000000000E+000   1.00000000000000                                     
    5    5                                                                      
   1.04600000000000        1.00000000000000       0.000000000000000E+000        
  0.000000000000000E+000  0.000000000000000E+000  0.000000000000000E+000        
  0.344000000000000       0.000000000000000E+000   1.00000000000000             
  0.000000000000000E+000  0.000000000000000E+000  0.000000000000000E+000        
   17.9570000000000       0.000000000000000E+000  0.000000000000000E+000        
   1.00000000000000       0.000000000000000E+000  0.000000000000000E+000        
   5.76000000000000       0.000000000000000E+000  0.000000000000000E+000        
  0.000000000000000E+000   1.00000000000000       0.000000000000000E+000        
  0.135000000000000       0.000000000000000E+000  0.000000000000000E+000        
  0.000000000000000E+000  0.000000000000000E+000   1.00000000000000             
    3    3                                                                      
  0.706000000000000        1.00000000000000       0.000000000000000E+000        
  0.000000000000000E+000                                                        
   11.7790000000000       0.000000000000000E+000   1.00000000000000             
  0.000000000000000E+000                                                        
  0.312000000000000       0.000000000000000E+000  0.000000000000000E+000        
   1.00000000000000                                                             
FINISH                                                                          
 
********************************************************************************
 ONE- AND TWO-ELECTRON INTEGRALS OVER SYMMETRY-ADAPTED AOS ARE CALCULATED.

  SPHERICAL HARMONICS ARE USED.
  
  INTEGRALS LESS THAN  0.10E-13 ARE NEGLECTED.

  NUCLEAR REPULSION ENERGY :   50.1418863645 A.U.
  @MOLECU-I, ONE ELECTRON INTEGRALS (CPU/WALL):        0.04/       0.06 SECONDS.
  @TWOEL-I,   14233518 INTEGRALS OF SYMMETRY TYPE  I I I I
  @TWOEL-I,   13450852 INTEGRALS OF SYMMETRY TYPE  I J I J
  @TWOEL-I,    6945638 INTEGRALS OF SYMMETRY TYPE  I I J J
  @TWOEL-I, TOTAL NUMBER OF 2-E INTEGRALS   34630008.
  @MOLECU-I, TWO ELECTRON INTEGRALS (CPU/WALL):       60.46/       9.59 SECONDS.
 @CHECKOUT-I, Total execution time (CPU/WALL):       60.52/       9.67 seconds.

Running with 14 threads/proc

--executable xvmol finished with status     0 in        9.72 seconds (walltime).
 --invoking executable--
/home/asmola/.local/bin/xvmol2ja
 @GETMEM-I,  Allocated    3814 MB of main memory.
 @CHECKOUT-I, Total execution time (CPU/WALL):        0.08/       0.02 seconds.
--executable xvmol2ja finished with status     0 in        0.05 seconds (walltime).
 --invoking executable--
/home/asmola/.local/bin/xvscf
  There are  157 functions in the AO basis.

  There are 2 irreducible representations.

       Irrep        # of functions
         1                104
         2                 53


  Parameters for SCF calculation: 
        SCF reference function:  RHF  
  Maximum number of iterations:  150
     Full symmetry point group: C s 
     Computational point group: C s 
        Initial density matrix: MOREAD                 
     SCF convergence tolerance: 10**(-10)
  DIIS convergence acceleration:  ON
          Latest start for DIIS:   8
                     DIIS order:   6

  Memory information:    1209746 words required.
  Fock matrices are constructed from AO integral file.
 @GETMEM-I,  Allocated       9 MB of main memory.
  Initialization and symmetry analysis required      0.002 seconds.

  @INITGES-I, Occupancies from core Hamiltonian:

          Alpha population by irrep:  10    3
           Beta population by irrep:  10    3


 total no. of electrons in initial guess :  0.000000000000000E+000
  --------------------------------------------------------------------
  Iteration         Total Energy            Largest Density Difference
  --------------------------------------------------------------------
       0            50.141886364483831              0.0000000000D+00
   current occupation vector 
    10  3
    10  3
       1          -365.778116209676625              0.1326105698D+02
   current occupation vector 
    10  3
    10  3
       2          -340.876074144109680              0.1324087103D+02
   current occupation vector 
    10  3
    10  3
       3          -421.709649610096392              0.1072550756D+02
   current occupation vector 
    10  3
    10  3
       4          -338.885960181360474              0.1073157315D+02
   current occupation vector 
    10  3
    10  3
       5          -421.543853366873179              0.1068933185D+02
   current occupation vector 
    10  3
    10  3
       6          -338.839040041829719              0.1068943614D+02
   current occupation vector 
    10  3
    10  3
       7          -421.539124199587718              0.1068826284D+02
   current occupation vector 
    10  3
    10  3
       8          -338.837907420697150              0.1068826542D+02
   current occupation vector 
    10  3
    10  3
       9          -445.187424807962259              0.8404794449D+01
   current occupation vector 
    10  3
    10  3
      10          -462.578508660929913              0.1925955845D+01
   current occupation vector 
    10  3
    10  3
      11          -466.380230878165833              0.4291352926D+00
   current occupation vector 
    10  3
    10  3
      12          -465.666137498066803              0.1005643148D+00
   current occupation vector 
    10  3
    10  3
      13          -475.795785975148817              0.1298160966D+01
   current occupation vector 
    10  3
    10  3
      14          -485.241182104885581              0.1184115462D+01
   current occupation vector 
    10  3
    10  3
      15          -507.984397576732761              0.7444490898D+01
   current occupation vector 
    10  3
    10  3
      16          -522.269766381811564              0.7443817523D+01
   current occupation vector 
    11  2
    11  2
      17          -527.580566162457785              0.3994046310D+01
   current occupation vector 
    11  2
    11  2
      18          -533.688982286778810              0.2586707719D+01
   current occupation vector 
    10  3
    10  3
      19          -534.690030112847580              0.8363313153D+00
   current occupation vector 
    10  3
    10  3
      20          -534.865375954686897              0.3154465138D+00
   current occupation vector 
    10  3
    10  3
      21          -534.880160160590208              0.1584969074D+00
   current occupation vector 
    10  3
    10  3
      22          -534.882079663175546              0.4380828704D-01
   current occupation vector 
    10  3
    10  3
      23          -534.882580358990595              0.2977737540D-01
   current occupation vector 
    10  3
    10  3
      24          -534.882639675087262              0.1017224020D-01
   current occupation vector 
    10  3
    10  3
      25          -534.882651697594952              0.4927096462D-02
   current occupation vector 
    10  3
    10  3
      26          -534.882652652240040              0.1107534864D-02
   current occupation vector 
    10  3
    10  3
      27          -534.882652776354348              0.4705651903D-03
   current occupation vector 
    10  3
    10  3
      28          -534.882652802075768              0.2795951985D-03
   current occupation vector 
    10  3
    10  3
      29          -534.882652802941720              0.4920543297D-04
   current occupation vector 
    10  3
    10  3
      30          -534.882652802997768              0.1005084665D-04
   current occupation vector 
    10  3
    10  3
      31          -534.882652802996290              0.2832935442D-05
   current occupation vector 
    10  3
    10  3
      32          -534.882652803001633              0.7282253840D-06
   current occupation vector 
    10  3
    10  3
      33          -534.882652803006295              0.1784674117D-06
   current occupation vector 
    10  3
    10  3
      34          -534.882652803005612              0.1112281284D-06
   current occupation vector 
    10  3
    10  3
      35          -534.882652802998336              0.4032253242D-07
   current occupation vector 
    10  3
    10  3
      36          -534.882652803003566              0.1852814206D-07
   current occupation vector 
    10  3
    10  3
      37          -534.882652803003452              0.7985259481D-08
   current occupation vector 
    10  3
    10  3
      38          -534.882652803007431              0.2317615128D-08
   current occupation vector 
    10  3
    10  3
      39          -534.882652803008341              0.6980338807D-09
   current occupation vector 
    10  3
    10  3
      40          -534.882652803001861              0.2148966838D-09
   current occupation vector 
    10  3
    10  3

  SCF has converged.

 Density matrix saved to file den.dat
 total electron number:   26.0000000000001     
     E(SCF)=      -534.882652803007090              0.8477490931D-10

  Eigenvector printing suppressed.

 @PUTMOS-I, Writing converged MOs to NEWMOS. 
 @PUTMOS-I, Symmetry   1 Full Blocks 26 Partial Blocksize   0
 @PUTMOS-I, Symmetry   2 Full Blocks 13 Partial Blocksize   1
 @PUTFOCK-I, Writing converged Fock matrix to NEWFOCK. 
 @PUTFOCK-I, Symmetry   1 Full Blocks 26 Partial Blocksize   0
 @PUTFOCK-I, Symmetry   2 Full Blocks 13 Partial Blocksize   1


 
  ORBITAL EIGENVALUES (ALPHA)  (1H = 27.2113834 eV)

       MO #        E(hartree)               E(eV)           FULLSYM    COMPSYM
       ----   --------------------   --------------------   -------   ---------
    1     1        -104.8859052217       -2854.0905802434     A'        A'  (1)
    2     2         -20.6548188422        -562.0461945722     A'        A'  (1)
    3     3         -10.6058660854        -288.6002883382     A'        A'  (1)
    4     4          -8.0725827147        -219.6661432786     A'        A'  (1)
    5     5          -8.0702868453        -219.6036694944     A'        A'  (1)
    6   105          -8.0701326464        -219.5994735308     A''       A'' (2)
    7     6          -1.3755757754         -37.4313198204     A'        A'  (1)
    8     7          -1.0420878923         -28.3566531736     A'        A'  (1)
    9     8          -0.6655707036         -18.1110995947     A'        A'  (1)
   10   106          -0.6070021082         -16.5173670906     A''       A'' (2)
   11     9          -0.5958182016         -16.2130375194     A'        A'  (1)
   12    10          -0.4555822624         -12.3970236114     A'        A'  (1)
   13   107          -0.4373668913         -11.9013581656     A''       A'' (2)
  +++++++++++++++++++++++++++++++++++++++++++++++++++++++++++++++++++++++++++++
   14    11           0.0206935586           0.5631003561     A'        A'  (1)
   15    12           0.0625734796           1.7027109444     A'        A'  (1)
   16    13           0.1087444044           2.9590856821     A'        A'  (1)
   17   108           0.1169266683           3.1817364007     A''       A'' (2)
   18    14           0.1312795123           3.5722971407     A'        A'  (1)
   19    15           0.1556352934           4.2350516403     A'        A'  (1)
   20    16           0.1690195350           4.5992553694     A'        A'  (1)
   21    17           0.1748961845           4.7591671310     A'        A'  (1)
   22   109           0.1917056829           5.2165768362     A''       A'' (2)
   23    18           0.2294715334           6.2442378746     A'        A'  (1)
   24   110           0.2544284126           6.9233490836     A''       A'' (2)
   25    19           0.2973265857           8.0906677195     A'        A'  (1)
   26    20           0.3278365333           8.9208856003     A'        A'  (1)
   27    21           0.3636296318           9.8948653271     A'        A'  (1)
   28   111           0.3814079001          10.3786366013     A''       A'' (2)
   29    22           0.3910653010          10.6414278394     A'        A'  (1)
   30   112           0.4230151999          11.5108287892     A''       A'' (2)
   31    23           0.4540949285          12.3565511986     A'        A'  (1)
   32    24           0.5059067721          13.7664231393     A'        A'  (1)
   33    25           0.5985777448          16.2881285080     A'        A'  (1)
   34   113           0.6152615045          16.7421166903     A''       A'' (2)
   35    26           0.6736593087          18.3312017311     A'        A'  (1)
   36    27           0.6915088575          18.8169126459     A'        A'  (1)
   37   114           0.7285296790          19.8243004143     A''       A'' (2)
   38    28           0.7375992375          20.0710956462     A'        A'  (1)
   39    29           0.7667042091          20.8630821895     A'        A'  (1)
   40   115           0.7709149823          20.9776631515     A''       A'' (2)
   41    30           0.8495668970          23.1178905593     A'        A'  (1)
   42    31           0.8586798360          23.3658662362     A'        A'  (1)
   43   116           0.8696877979          23.6654081056     A''       A'' (2)
   44   117           0.9034660883          24.5845621166     A''       A'' (2)
   45    32           0.9046530440          24.6168608252     A'        A'  (1)
   46   118           0.9271191895          25.2281957227     A''       A'' (2)
   47    33           0.9293682189          25.2893949240     A'        A'  (1)
   48    34           0.9564931123          26.0275007988     A'        A'  (1)
   49   119           0.9764507878          26.5705767569     A''       A'' (2)
   50    35           1.0012609825          27.2456964786     A'        A'  (1)
   51    36           1.0178448188          27.6969656065     A'        A'  (1)
   52    37           1.1186507890          30.4400355108     A'        A'  (1)
   53   120           1.1312142997          30.7819060160     A''       A'' (2)
   54    38           1.1888235955          32.3495346523     A'        A'  (1)
   55   121           1.1945433391          32.5051767889     A''       A'' (2)
   56    39           1.2375722321          33.6760524932     A'        A'  (1)
   57    40           1.2996680305          35.3657650702     A'        A'  (1)
   58   122           1.3789845694          37.5240778215     A''       A'' (2)
   59    41           1.4269743647          38.8299465396     A'        A'  (1)
   60   123           1.4544337826          39.5771552872     A''       A'' (2)
   61   124           1.5268459759          41.5475912419     A''       A'' (2)
   62    42           1.5679692502          42.6666124261     A'        A'  (1)
   63    43           1.6371360393          44.5487364432     A'        A'  (1)
   64    44           1.7111490095          46.5627317531     A'        A'  (1)
   65    45           1.7294037073          47.0594673315     A'        A'  (1)
   66    46           1.8212217473          49.5579632235     A'        A'  (1)
   67   125           2.1786268312          59.2834499891     A''       A'' (2)
   68   126           2.2206763186          60.4276747137     A''       A'' (2)
   69    47           2.2554106008          61.3728425835     A'        A'  (1)
   70    48           2.2641595112          61.6109125368     A'        A'  (1)
   71    49           2.3104577781          62.8707524287     A'        A'  (1)
   72   127           2.3157937004          63.0159502577     A''       A'' (2)
   73    50           2.3410882342          63.7042495141     A'        A'  (1)
   74    51           2.3844984672          64.8855020077     A'        A'  (1)
   75    52           2.4472411801          66.5928180233     A'        A'  (1)
   76   128           2.4484051696          66.6244917889     A''       A'' (2)
   77   129           2.4743357533          67.3300988423     A''       A'' (2)
   78   130           2.4812974198          67.5195354193     A''       A'' (2)
   79    53           2.5010401659          68.0567628523     A'        A'  (1)
   80   131           2.6661481852          72.5495804682     A''       A'' (2)
   81    54           2.7083648219          73.6983535567     A'        A'  (1)
   82    55           2.7410086902          74.5866383714     A'        A'  (1)
   83   132           2.8968123688          78.8262720054     A''       A'' (2)
   84    56           2.9201120147          79.4602876040     A'        A'  (1)
   85    57           2.9645625857          80.6698491334     A'        A'  (1)
   86   133           3.0625211746          83.3354378533     A''       A'' (2)
   87    58           3.0688246875          83.5069651586     A'        A'  (1)
   88   134           3.1235050463          84.9948933669     A''       A'' (2)
   89    59           3.1283030858          85.1254546598     A'        A'  (1)
   90    60           3.2282306381          87.8446215963     A'        A'  (1)
   91    61           3.2689758736          88.9533558229     A'        A'  (1)
   92   135           3.3588600585          91.3992288388     A''       A'' (2)
   93    62           3.4349772181          93.4704820528     A'        A'  (1)
   94    63           3.4817460855          94.7431276340     A'        A'  (1)
   95    64           3.8007121390         103.4226352069     A'        A'  (1)
   96   136           3.9546445826         107.6113499471     A''       A'' (2)
   97   137           4.0323996637         109.7271732719     A''       A'' (2)
   98    65           4.0992745082         111.5469303044     A'        A'  (1)
   99    66           4.1749299813         113.6056203906     A'        A'  (1)
  100   138           4.2766914114         116.3746896782     A''       A'' (2)
  101    67           4.4917009990         122.2253980012     A'        A'  (1)
  102    68           4.6011240075         125.2029494390     A'        A'  (1)
  103   139           4.6719332508         127.1297669070     A''       A'' (2)
  104    69           4.8361343900         131.5979070609     A'        A'  (1)
  105    70           5.1684021403         140.6393722054     A'        A'  (1)
  106    71           5.7457928317         156.3509716815     A'        A'  (1)
  107    72           6.1993754503         168.6935822183     A'        A'  (1)
  108   140           6.6173782288         180.0680160864     A''       A'' (2)
  109    73           6.6773207344         181.6991345887     A'        A'  (1)
  110   141           6.7391029622         183.3803144763     A''       A'' (2)
  111    74           6.7666907437         184.1310161767     A'        A'  (1)
  112   142           6.8186529477         185.5449796320     A''       A'' (2)
  113    75           6.9232501576         188.3912144129     A'        A'  (1)
  114   143           7.1373712890         194.2177466121     A''       A'' (2)
  115    76           7.2007938934         195.9435634186     A'        A'  (1)
  116   144           7.2287940955         196.7054876531     A''       A'' (2)
  117    77           7.5567232097         205.6288925080     A'        A'  (1)
  118    78           7.6628584065         208.5169780379     A'        A'  (1)
  119    79           7.8542232791         213.7242809578     A'        A'  (1)
  120   145          10.3537510115         281.7398884016     A''       A'' (2)
  121    80          10.3553014722         281.7820785832     A'        A'  (1)
  122   146          10.3920747385         282.7827300308     A''       A'' (2)
  123    81          10.4412203149         284.1200491517     A'        A'  (1)
  124    82          10.6178230053         288.9256526693     A'        A'  (1)
  125   147          12.6838748084         345.1457804098     A''       A'' (2)
  126    83          12.7358308575         346.5595763799     A'        A'  (1)
  127    84          13.2219708268         359.7881174714     A'        A'  (1)
  128    85          18.2744709451         497.2736353196     A'        A'  (1)
  129   148          26.0787787950         709.6396483958     A''       A'' (2)
  130    86          26.5421560833         722.2487854465     A'        A'  (1)
  131    87          27.1277207098         738.1828090019     A'        A'  (1)
  132    88          28.8794142296         785.8488129701     A'        A'  (1)
  133   149          36.8997511806        1004.0932767410     A''       A'' (2)
  134   150          36.9004833534        1004.1132001743     A''       A'' (2)
  135    89          36.9006486515        1004.1176981644     A'        A'  (1)
  136    90          36.9039315793        1004.2070311714     A'        A'  (1)
  137   151          36.9090273237        1004.3456934273     A''       A'' (2)
  138    91          36.9092003839        1004.3504026328     A'        A'  (1)
  139    92          36.9132036963        1004.4593383029     A'        A'  (1)
  140   152          43.9010876455        1194.6093275993     A''       A'' (2)
  141    93          43.9142253964        1194.9668239748     A'        A'  (1)
  142   153          43.9269765007        1195.3137991634     A''       A'' (2)
  143    94          44.0413870238        1198.4270677728     A'        A'  (1)
  144    95          44.1027778997        1200.0975984347     A'        A'  (1)
  145   154          46.4871738021        1264.9803095103     A''       A'' (2)
  146    96          46.4880843098        1265.0050856858     A'        A'  (1)
  147   155          46.5120092015        1265.6561150877     A''       A'' (2)
  148    97          46.5388821249        1266.3873645090     A'        A'  (1)
  149    98          46.6253647646        1268.7406767754     A'        A'  (1)
  150   156          55.0235801567        1497.2677356835     A''       A'' (2)
  151    99          55.0799926141        1498.8027966903     A'        A'  (1)
  152   100          55.6483254509        1514.2679194115     A'        A'  (1)
  153   101         103.8517009906        2825.9484523974     A'        A'  (1)
  154   157         138.2352807377        3761.5732235591     A''       A'' (2)
  155   102         138.5646497861        3770.5358110161     A'        A'  (1)
  156   103         138.9962283238        3782.2796600725     A'        A'  (1)
  157   104         149.6015074468        4070.8639763525     A'        A'  (1)


  VSCF finished.

 @CHECKOUT-I, Total execution time (CPU/WALL):       67.46/      13.39 seconds.
--executable xvscf finished with status     0 in       13.43 seconds (walltime).
 --invoking executable--
/home/asmola/.local/bin/xvtran
 @GETMEM-I,  Allocated    3814 MB of main memory.
  Full RHF integral transformation
  Transformation of IIII integrals :
  1 pass through the AO integral file was required.
    14233518 AO integrals were read.
    15933126 MO integrals were written to HF2.
  Transformation of IIJJ integrals :
  1 pass through the AO integral file was required.
     6945638 AO integrals were read.
     7813260 MO integrals were written to HF2.
  Transformation of IJIJ integrals :
  1 pass through the AO integral file was required.
    13450852 AO integrals were read.
    15193828 MO integrals were written to HF2.
  Summary of active molecular orbitals: 
------------------------------------------------------------------------
 
  Index      Eigenvalue    Symmetry    Index      Eigenvalue    Symmetry
------------------------------------------------------------------------
     1      -104.8859052        1        80         7.5567232        1
     2       -20.6548188        1        81         7.6628584        1
     3       -10.6058661        1        82         7.8542233        1
     4        -8.0725827        1        83        10.3553015        1
     5        -8.0702868        1        84        10.4412203        1
     6        -1.3755758        1        85        10.6178230        1
     7        -1.0420879        1        86        12.7358309        1
     8        -0.6655707        1        87        13.2219708        1
     9        -0.5958182        1        88        18.2744709        1
    10        -0.4555823        1        89        26.5421561        1
    11        -8.0701326        2        90        27.1277207        1
    12        -0.6070021        2        91        28.8794142        1
    13        -0.4373669        2        92        36.9006487        1
    14         0.0206936        1        93        36.9039316        1
    15         0.0625735        1        94        36.9092004        1
    16         0.1087444        1        95        36.9132037        1
    17         0.1312795        1        96        43.9142254        1
    18         0.1556353        1        97        44.0413870        1
    19         0.1690195        1        98        44.1027779        1
    20         0.1748962        1        99        46.4880843        1
    21         0.2294715        1       100        46.5388821        1
    22         0.2973266        1       101        46.6253648        1
    23         0.3278365        1       102        55.0799926        1
    24         0.3636296        1       103        55.6483255        1
    25         0.3910653        1       104       103.8517010        1
    26         0.4540949        1       105       138.5646498        1
    27         0.5059068        1       106       138.9962283        1
    28         0.5985777        1       107       149.6015074        1
    29         0.6736593        1       108         0.1169267        2
    30         0.6915089        1       109         0.1917057        2
    31         0.7375992        1       110         0.2544284        2
    32         0.7667042        1       111         0.3814079        2
    33         0.8495669        1       112         0.4230152        2
    34         0.8586798        1       113         0.6152615        2
    35         0.9046530        1       114         0.7285297        2
    36         0.9293682        1       115         0.7709150        2
    37         0.9564931        1       116         0.8696878        2
    38         1.0012610        1       117         0.9034661        2
    39         1.0178448        1       118         0.9271192        2
    40         1.1186508        1       119         0.9764508        2
    41         1.1888236        1       120         1.1312143        2
    42         1.2375722        1       121         1.1945433        2
    43         1.2996680        1       122         1.3789846        2
    44         1.4269744        1       123         1.4544338        2
    45         1.5679693        1       124         1.5268460        2
    46         1.6371360        1       125         2.1786268        2
    47         1.7111490        1       126         2.2206763        2
    48         1.7294037        1       127         2.3157937        2
    49         1.8212217        1       128         2.4484052        2
    50         2.2554106        1       129         2.4743358        2
    51         2.2641595        1       130         2.4812974        2
    52         2.3104578        1       131         2.6661482        2
    53         2.3410882        1       132         2.8968124        2
    54         2.3844985        1       133         3.0625212        2
    55         2.4472412        1       134         3.1235050        2
    56         2.5010402        1       135         3.3588601        2
    57         2.7083648        1       136         3.9546446        2
    58         2.7410087        1       137         4.0323997        2
    59         2.9201120        1       138         4.2766914        2
    60         2.9645626        1       139         4.6719333        2
    61         3.0688247        1       140         6.6173782        2
    62         3.1283031        1       141         6.7391030        2
    63         3.2282306        1       142         6.8186529        2
    64         3.2689759        1       143         7.1373713        2
    65         3.4349772        1       144         7.2287941        2
    66         3.4817461        1       145        10.3537510        2
    67         3.8007121        1       146        10.3920747        2
    68         4.0992745        1       147        12.6838748        2
    69         4.1749300        1       148        26.0787788        2
    70         4.4917010        1       149        36.8997512        2
    71         4.6011240        1       150        36.9004834        2
    72         4.8361344        1       151        36.9090273        2
    73         5.1684021        1       152        43.9010876        2
    74         5.7457928        1       153        43.9269765        2
    75         6.1993755        1       154        46.4871738        2
    76         6.6773207        1       155        46.5120092        2
    77         6.7666907        1       156        55.0235802        2
    78         6.9232502        1       157       138.2352807        2
    79         7.2007939        1
------------------------------------------------------------------------
  -104.885905221686       -20.6548188421827       -10.6058660853769     
  -8.07258271472354       -8.07028684526050       -1.37557577540775     
  -1.04208789229042      -0.665570703570444      -0.595818201561867     
 -0.455582262361421       -8.07013264642617      -0.607002108191893     
 -0.437366891298342       2.069355856613535E-002  6.257347961186686E-002
  0.108744404449166       0.131279512261302       0.155635293437656     
  0.169019535017216       0.174896184477740       0.229471533395338     
  0.297326585736414       0.327836533306684       0.363629631821259     
  0.391065300979399       0.454094928471965       0.505906772064988     
  0.598577744781630       0.673659308738748       0.691508857498679     
  0.737599237464620       0.766704209147133       0.849566897040013     
  0.858679836035884       0.904653044033568       0.929368218891026     
  0.956493112321679        1.00126098251365        1.01784481881574     
   1.11865078902325        1.18882359550585        1.23757223211202     
   1.29966803048496        1.42697436469192        1.56796925017977     
   1.63713603929272        1.71114900953950        1.72940370725416     
   1.82122174734714        2.25541060082551        2.26415951115361     
   2.31045777807564        2.34108823420277        2.38449846719979     
   2.44724118007485        2.50104016587091        2.70836482193412     
   2.74100869018791        2.92011201473930        2.96456258572123     
   3.06882468748623        3.12830308582403        3.22823063807618     
   3.26897587363717        3.43497721812843        3.48174608550104     
   3.80071213898240        4.09927450819845        4.17492998134902     
   4.49170099897380        4.60112400750062        4.83613439002437     
   5.16840214031159        5.74579283174029        6.19937545028832     
   6.67732073440776        6.76669074372199        6.92325015761098     
   7.20079389343416        7.55672320974484        7.66285840645113     
   7.85422327913776        10.3553014722214        10.4412203148654     
   10.6178230052548        12.7358308574620        13.2219708267918     
   18.2744709451110        26.5421560833424        27.1277207097796     
   28.8794142296374        36.9006486514899        36.9039315792879     
   36.9092003838647        36.9132036963224        43.9142253963762     
   44.0413870238152        44.1027778997331        46.4880843098112     
   46.5388821249340        46.6253647646371        55.0799926140562     
   55.6483254508651        103.851700990601        138.564649786093     
   138.996228323786        149.601507446788       0.116926668297162     
  0.191705682857110       0.254428412616129       0.381407900095757     
  0.423015199924417       0.615261504501823       0.728529679026511     
  0.770914982275216       0.869687797851704       0.903466088261078     
  0.927119189488299       0.976450787758861        1.13121429967280     
   1.19454333912689        1.37898456943256        1.45443378256110     
   1.52684597585980        2.17862683119167        2.22067631863642     
   2.31579370042991        2.44840516961308        2.47433575325883     
   2.48129741978935        2.66614818518143        2.89681236880509     
   3.06252117462442        3.12350504630796        3.35886005849862     
   3.95464458257326        4.03239966373259        4.27669141136866     
   4.67193325080831        6.61737822878921        6.73910296219286     
   6.81865294772345        7.13737128896047        7.22879409552968     
   10.3537510114822        10.3920747384996        12.6838748084312     
   26.0787787950449        36.8997511806419        36.9004833533865     
   36.9090273237392        43.9010876455225        43.9269765007028     
   46.4871738020596        46.5120092015497        55.0235801566602     
   138.235280737661     
 @CHECKOUT-I, Total execution time (CPU/WALL):       33.54/      19.13 seconds.
--executable xvtran finished with status     0 in       19.19 seconds (walltime).
 --invoking executable--
/home/asmola/.local/bin/xintprc
 @GETMEM-I,  Allocated    3814 MB of main memory.
  Processing integrals for CCSD calculation.
  @GMOIAA-I, Processing MO integrals for spin case AA.
  @GMOIAA-I, Generation of integral list completed.
                      TYPE                NUMBER
                      ----               --------
                      PPPP              27524020
                      PPPH               9932000
                      PPHH                900748
                      PHPH                491140
                      PHHH                 89950
                      HHHH                  2356

                     TOTAL              38940214

  @FORMT2-I, Second-order MP correlation energies:
            ------------------------------------------------
            E(SCF)                  =   -534.882652803007 a.u.
            E2(AA)                  =     -0.108822829247 a.u.
            E2(AB)                  =     -0.638652921925 a.u.
            E2(TOT)                 =     -0.856298580420 a.u.
            Total MP2 energy        =   -535.738951383427 a.u.
            ------------------------------------------------
   Largest T2 amplitudes for spin case AB:
       _       _                 _       _                 _       _
   i   j   a   b             i   j   a   b             i   j   a   b
-----------------------------------------------------------------------------
[  9   9  19  19]-0.02385 [  9   9  19  15] 0.02004 [  9   9  15  19] 0.02004
[  8   8  24  24]-0.01955 [  9   9  15  15]-0.01927 [ 13  13 112 112]-0.01769
[  9   9  19  18] 0.01665 [  9   9  18  19] 0.01665 [ 10  10  26  26]-0.01574
[  9   9  18  15]-0.01542 [  9   9  15  18]-0.01542 [ 13  13 113 113]-0.01538
[ 10  10 117 117]-0.01491 [  9   9  18  18]-0.01472 [ 13  13 117 117]-0.01377
-----------------------------------------------------------------------------
   Norm of T2AB vector (  1799624 symmetry allowed elements):  0.3371113630.
-----------------------------------------------------------------------------
 @CHECKOUT-I, Total execution time (CPU/WALL):        6.27/       8.37 seconds.
--executable xintprc finished with status     0 in        8.50 seconds (walltime).
  calling xvcc 
 --invoking executable--
/home/asmola/.local/bin/xvcc
 @GETMEM-I,  Allocated    3814 MB of main memory.
   CCSD energy will be calculated.
   The total correlation energy is -0.856298580420 a.u.
   The total correlation energy is -0.852935478021 a.u.
  Convergence information after     1 iterations: 
  Largest element of residual vector : -0.13031423E-01.
  Largest element of DIIS residual   : -0.13031423E-01.
   The total correlation energy is -0.869059717266 a.u.
  Convergence information after     2 iterations: 
  Largest element of residual vector : -0.33074819E-02.
  Largest element of DIIS residual   : -0.28976271E-02.
   The total correlation energy is -0.868623858097 a.u.
  Convergence information after     3 iterations: 
  Largest element of residual vector : -0.23337683E-02.
  Largest element of DIIS residual   : -0.14417001E-02.
   The total correlation energy is -0.870283401044 a.u.
  Convergence information after     4 iterations: 
  Largest element of residual vector : -0.40888071E-03.
  Largest element of DIIS residual   : -0.38593941E-03.
   The total correlation energy is -0.870483264252 a.u.
  Convergence information after     5 iterations: 
  Largest element of residual vector :  0.46305676E-03.
  Largest element of DIIS residual   :  0.32076688E-03.
   The total correlation energy is -0.870492581040 a.u.
  Convergence information after     6 iterations: 
  Largest element of residual vector : -0.20436581E-03.
  Largest element of DIIS residual   : -0.14723429E-03.
   The total correlation energy is -0.870496591194 a.u.
  Convergence information after     7 iterations: 
  Largest element of residual vector : -0.13343291E-03.
  Largest element of DIIS residual   : -0.85824056E-04.
   The total correlation energy is -0.870496777835 a.u.
  Convergence information after     8 iterations: 
  Largest element of residual vector : -0.59879400E-04.
  Largest element of DIIS residual   : -0.34993732E-04.
   The total correlation energy is -0.870496566961 a.u.
  Convergence information after     9 iterations: 
  Largest element of residual vector : -0.29309432E-04.
  Largest element of DIIS residual   : -0.15807945E-04.
   The total correlation energy is -0.870497923750 a.u.
  Convergence information after    10 iterations: 
  Largest element of residual vector : -0.13268343E-04.
  Largest element of DIIS residual   :  0.64207672E-05.
   The total correlation energy is -0.870498287419 a.u.
  Convergence information after    11 iterations: 
  Largest element of residual vector :  0.39723976E-05.
  Largest element of DIIS residual   : -0.27581257E-05.
   The total correlation energy is -0.870498601826 a.u.
  Convergence information after    12 iterations: 
  Largest element of residual vector : -0.24248754E-05.
  Largest element of DIIS residual   : -0.13275941E-05.
   The total correlation energy is -0.870498746286 a.u.
  Convergence information after    13 iterations: 
  Largest element of residual vector : -0.71057582E-06.
  Largest element of DIIS residual   : -0.52492392E-06.
   The total correlation energy is -0.870498788203 a.u.
  Convergence information after    14 iterations: 
  Largest element of residual vector : -0.54727293E-06.
  Largest element of DIIS residual   : -0.36119178E-06.
   The total correlation energy is -0.870498800083 a.u.
  Convergence information after    15 iterations: 
  Largest element of residual vector : -0.25557080E-06.
  Largest element of DIIS residual   : -0.16373258E-06.
   The total correlation energy is -0.870498804937 a.u.
  Convergence information after    16 iterations: 
  Largest element of residual vector : -0.15682825E-06.
  Largest element of DIIS residual   : -0.82829359E-07.
   The total correlation energy is -0.870498806257 a.u.
  Convergence information after    17 iterations: 
  Largest element of residual vector : -0.77535593E-07.
  Largest element of DIIS residual   : -0.36943996E-07.
   The total correlation energy is -0.870498806887 a.u.
  Convergence information after    18 iterations: 
  Largest element of residual vector : -0.24754984E-07.
  Largest element of DIIS residual   : -0.19320791E-07.
   The total correlation energy is -0.870498807224 a.u.
  Convergence information after    19 iterations: 
  Largest element of residual vector : -0.16043406E-07.
  Largest element of DIIS residual   : -0.85234440E-08.
   The total correlation energy is -0.870498807534 a.u.
  Convergence information after    20 iterations: 
  Largest element of residual vector :  0.58357248E-08.
  Largest element of DIIS residual   :  0.45263356E-08.
   The total correlation energy is -0.870498807665 a.u.
  Convergence information after    21 iterations: 
  Largest element of residual vector : -0.33247565E-08.
  Largest element of DIIS residual   : -0.20811775E-08.
   The total correlation energy is -0.870498807749 a.u.
  Convergence information after    22 iterations: 
  Largest element of residual vector :  0.13828908E-08.
  Largest element of DIIS residual   : -0.10515362E-08.
   The total correlation energy is -0.870498807760 a.u.
  Convergence information after    23 iterations: 
  Largest element of residual vector : -0.88733668E-09.
  Largest element of DIIS residual   : -0.39661355E-09.
   The total correlation energy is -0.870498807768 a.u.
  Convergence information after    24 iterations: 
  Largest element of residual vector : -0.39518769E-09.
  Largest element of DIIS residual   : -0.26597616E-09.
   The total correlation energy is -0.870498807769 a.u.
  Convergence information after    25 iterations: 
  Largest element of residual vector : -0.17560193E-09.
  Largest element of DIIS residual   : -0.11355505E-09.
   The total correlation energy is -0.870498807770 a.u.
  Convergence information after    26 iterations: 
  Largest element of residual vector : -0.10272119E-09.
  Largest element of DIIS residual   : -0.58396643E-10.
   The total correlation energy is -0.870498807773 a.u.
  Convergence information after    27 iterations: 
  Largest element of residual vector : -0.35324875E-10.
  Largest element of DIIS residual   :  0.26585017E-10.
  Amplitude equations converged in    27iterations.
   The total correlation energy is -0.870498807773 a.u.
   The CC iterations have converged.

   Largest T1 amplitudes for spin case AA:
   i       a                 i       a                 i       a    
-----------------------------------------------------------------------------
[...]
 term  0.465535296625524     
 final tnorm  0.833766674266291     
  norm contr. I: |<0|L dT/dx|0>|^2   0.000000000000000E+000
  norm contr. II: <0|[nabla(1+L)e-T][nabla e^T]|0>  0.465535296625524     
  total norm contribution  0.465535296625524     
 oo  2.195660177267058E-003
 vv  -1.56564178313981     
 vo -2.712698856317007E-002
  Correlated perturbed 1-el contribution to DBOC  -1.59057311152571       cm**-1
  SUM_I |dc_I/dx|^2 contribution to DBOC  0.801643545491325       cm**-1
 
 
  The total diagonal Born-Oppenheimer correction (DBOC) is:      0.0087217708 a.u.
  The total diagonal Born-Oppenheimer correction (DBOC) is:       1914.207440 cm-1
 
 Total CC energy including DBOC  -535.744429839939     
 First-order density matrix is being calculated  (Symmetry block 2, perturbation   3)
 Calculation of the contributions of <pq||rs> to dI(i,j)/dx required   3.9 seconds.
 Calculation of the contributions of <pq||rs> to dI(a,b)/dx required   9.7 seconds.
 Calculation of the contributions of <pq||rs> to dI(i,a)/dx required   5.9 seconds.
 First-order Z-vector equations are solved for 1 perturbation.
 Convergence reached after  23 iterations.
        U*G(pq,rs) contribution is being calculated
             (Symmetry block 2, perturbation   3)

 CCSD contribution to force constants 

        0.0000000000        0.0000000000        0.0000000000
        0.0000000000        0.0000000000        0.0000000000
        0.0000000000        0.0000000000        0.0000000000
        0.0000000000        0.0000000000        0.0000000000
        0.0000000000        0.0000000000        0.0000000000
        0.0000000000        0.0000000000        0.0000000000
        0.0000000000        0.0000000000        0.0000000000
        0.0000000000        0.0000000000        0.0000000000
        0.0000000000        0.0000000000        0.0000000000
        0.0000000000        0.0000000000        0.0000000000
        0.0000000000        0.0000000000        0.0000000000
        0.0000000000        0.0000000000        0.0000000000
        0.0000000000        0.0000000000        0.0000000000
        0.0000000000        0.0000000000        0.0000000000
        0.0000000000        0.0000000000        0.0000000000
        0.0000000000        0.0000000000        0.0000000000
        0.0000000000        0.0000000000        0.0000000000
        0.0000000000        0.0000000000        0.0000000000
        0.0000000000        0.0000000000        0.0000000000
        0.0000000000        0.0000000000        0.0000000000
        0.0000000000        0.0000000000        0.0000000000
        0.0000000000        0.0000000000        0.0000000000
        0.0000000000        0.0000000000        0.0000000000
        0.0000000000        0.0000000000        0.0000000000
        0.0000000000        0.0000000000        0.0000000000
        0.0000000000        0.0000000000        0.0000000000
        0.0991436705       -0.0268049178       -0.0723387528

 CCSD contribution to dipole derivatives 

        0.0000000000        0.0000000000        0.0000000000
        0.0000000000        0.0000000000        0.0000000000
        0.0000000000        0.0000000000        0.0000000000
        0.0000000000        0.0000000000        0.0000000000
        0.0000000000        0.0000000000        0.0000000000
        0.0000000000        0.0000000000        0.0000000000
        0.0000000000        0.0000000000        0.0000000000
        0.0000000000        0.0000000000        0.0000000000
        0.0000000000        0.0000000000        0.0139949203
 @CHECKOUT-I, Total execution time (CPU/WALL):      926.32/     266.05 seconds.
--executable xsdcc finished with status     0 in      266.22 seconds (walltime).
 --invoking executable--
/home/asmola/.local/bin/xanti
 @GETMEM-I,  Allocated    3814 MB of main memory.
 CCSD MO derivative gammas will be sorted to Mulliken order.
 @CHECKOUT-I, Total execution time (CPU/WALL):        6.26/       4.95 seconds.
--executable xanti finished with status     0 in        5.08 seconds (walltime).
 --invoking executable--
/home/asmola/.local/bin/xbcktrn
 @GETMEM-I,  Allocated    3814 MB of main memory.
 CCSD MO derivative gammas will be transformed to the AO basis.
 @CHECKOUT-I, Total execution time (CPU/WALL):       11.72/       2.86 seconds.
--executable xbcktrn finished with status     0 in        2.92 seconds (walltime).
 --invoking executable--
/home/asmola/.local/bin/xvdint
 @GETMEM-I,  Allocated    3814 MB of main memory.
 One- and two-electron integral derivatives are calculated
 for RHF-CC/MBPT hessians and dipole derivatives.
 Spherical gaussians are used.
  magnet F F
 Evaluation of 2el integral derivatives

                      Two-electron integral gradient
                      ------------------------------

                         O #1 x     0.0000000000
                         O #1 y     0.0000000000
                         H #2 x     0.0000000000
                         H #2 y     0.0000000000
                         CL#3 x     0.0000000000
                         CL#3 y     0.0000000000


 O #1       0.0000000000            0.0000000000           -0.0913911004
 H #2       0.0000000000            0.0000000000            0.0068790802
 CL#3       0.0000000000            0.0000000000            0.0845120202


 Evaluation of 2e integral derivatives required  118.33 seconds.
  contribution to Hessian
        0.0000000000        0.0000000000        0.0000000000
        0.0000000000        0.0000000000        0.0000000000
       -0.0913911004        0.0068790802        0.0845120202
 @CHECKOUT-I, Total execution time (CPU/WALL):      118.53/      21.11 seconds.
--executable xvdint finished with status     0 in       21.22 seconds (walltime).
 --invoking executable--
/home/asmola/.local/bin/xanti
 @GETMEM-I,  Allocated    3814 MB of main memory.
 CCSD MO gammas will be sorted to Mulliken order.
 @CHECKOUT-I, Total execution time (CPU/WALL):        9.33/      16.67 seconds.
--executable xanti finished with status     0 in       16.76 seconds (walltime).
 --invoking executable--
/home/asmola/.local/bin/xbcktrn
 @GETMEM-I,  Allocated    3814 MB of main memory.
 CCSD MO gammas will be transformed to the AO basis.
 @CHECKOUT-I, Total execution time (CPU/WALL):       19.47/       3.68 seconds.
--executable xbcktrn finished with status     0 in        3.76 seconds (walltime).
 --invoking executable--
/home/asmola/.local/bin/xvdint
 @GETMEM-I,  Allocated    3814 MB of main memory.
 One- and two-electron integral derivatives are calculated
 for RHF-CC/MBPT hessians and dipole derivatives.
 Spherical gaussians are used.
  magnet F F

                     Kinetic energy integral gradient
                     --------------------------------

                         O #1 x     0.1771308534
                         O #1 y    -0.2820564585
                         H #2 x     0.1576756470
                         H #2 y     0.2960265009
                         CL#3 x    -0.3348065004
                         CL#3 y    -0.0139700424


 O #1       0.1771308534           -0.2820564585            0.0000000000
 H #2       0.1576756470            0.2960265009            0.0000000000
 CL#3      -0.3348065004           -0.0139700424            0.0000000000



                   Nuclear attraction integral gradient
                   ------------------------------------

                         O #1 x   -24.1980511865
                         O #1 y     5.1411014200
                         H #2 x    -3.4778662738
                         H #2 y    -4.9412038501
                         CL#3 x    27.6759174604
                         CL#3 y    -0.1998975699


 O #1     -24.1980511865            5.1411014200            0.0000000000
 H #2      -3.4778662738           -4.9412038501            0.0000000000
 CL#3      27.6759174604           -0.1998975699            0.0000000000



                      Reorthonormalization gradient
                      -----------------------------

                         O #1 x     0.0000000000
                         O #1 y     0.0000000000
                         H #2 x     0.0000000000
                         H #2 y     0.0000000000
                         CL#3 x     0.0000000000
                         CL#3 y     0.0000000000


 O #1       0.0000000000            0.0000000000            0.0000000000
 H #2       0.0000000000            0.0000000000            0.0000000000
 CL#3       0.0000000000            0.0000000000            0.0000000000



                     Kinetic energy integral Hessian
                     -------------------------------


           Symmetry 1

           O #1 x      O #1 y      H #2 x      H #2 y      CL#3 x      CL#3 y

 O #1 x    0.234621
 O #1 y    0.234099    0.050567
 H #2 x    0.130564   -0.236424   -0.132687
 H #2 y   -0.236424   -0.262758    0.243089    0.267656
 CL#3 x   -0.365185    0.002326    0.002123   -0.006664    0.363062
 CL#3 y    0.002326    0.212191   -0.006664   -0.004898    0.004339   -0.207293


           Symmetry 2

           O #1 z      H #2 z      CL#3 z

 O #1 z   -0.465430
 H #2 z    0.260462   -0.261773
 CL#3 z    0.204967    0.001311   -0.206278




           O #1 x      O #1 y      O #1 z      H #2 x      H #2 y      H #2 z

 O #1 x    0.234621
 O #1 y    0.234099    0.050567
 O #1 z    0.000000    0.000000   -0.465430

 H #2 x    0.130564   -0.236424    0.000000   -0.132687
 H #2 y   -0.236424   -0.262758    0.000000    0.243089    0.267656
 H #2 z    0.000000    0.000000    0.260462    0.000000    0.000000   -0.261773

 CL#3 x   -0.365185    0.002326    0.000000    0.002123   -0.006664    0.000000
 CL#3 y    0.002326    0.212191    0.000000   -0.006664   -0.004898    0.000000
 CL#3 z    0.000000    0.000000    0.204967    0.000000    0.000000    0.001311


           CL#3 x      CL#3 y      CL#3 z

 CL#3 x    0.363062
 CL#3 y    0.004339   -0.207293
 CL#3 z    0.000000    0.000000   -0.206278




                   Nuclear attraction integral Hessian
                   -----------------------------------


           Symmetry 1

           O #1 x      O #1 y      H #2 x      H #2 y      CL#3 x      CL#3 y

 O #1 x  -11.581938
 O #1 y   -1.013474    9.009881
 H #2 x   -2.575801    2.224126    2.184455
 H #2 y    2.212326    1.168049   -2.881579   -1.353272
 CL#3 x   14.157739   -1.210653    0.391345    0.669253  -14.549084
 CL#3 y   -1.198852  -10.177930    0.657453    0.185223    0.541400    9.992707


           Symmetry 2

           O #1 z      H #2 z      CL#3 z

 O #1 z   13.429481
 H #2 z   -3.762729    4.091162
 CL#3 z   -9.666752   -0.328434    9.995185




           O #1 x      O #1 y      O #1 z      H #2 x      H #2 y      H #2 z

 O #1 x  -11.581938
 O #1 y   -1.013474    9.009881
 O #1 z    0.000000    0.000000   13.429481

 H #2 x   -2.575801    2.224126    0.000000    2.184455
 H #2 y    2.212326    1.168049    0.000000   -2.881579   -1.353272
 H #2 z    0.000000    0.000000   -3.762729    0.000000    0.000000    4.091162

 CL#3 x   14.157739   -1.210653    0.000000    0.391345    0.669253    0.000000
 CL#3 y   -1.198852  -10.177930    0.000000    0.657453    0.185223    0.000000
 CL#3 z    0.000000    0.000000   -9.666752    0.000000    0.000000   -0.328434


           CL#3 x      CL#3 y      CL#3 z

 CL#3 x  -14.549084
 CL#3 y    0.541400    9.992707
 CL#3 z    0.000000    0.000000    9.995185




                Highest order reorthonormalization Hessian
                ------------------------------------------


           Symmetry 1

           O #1 x      O #1 y      H #2 x      H #2 y      CL#3 x      CL#3 y

 O #1 x    0.000000
 O #1 y    0.000000    0.000000
 H #2 x    0.000000    0.000000    0.000000
 H #2 y    0.000000    0.000000    0.000000    0.000000
 CL#3 x    0.000000    0.000000    0.000000    0.000000    0.000000
 CL#3 y    0.000000    0.000000    0.000000    0.000000    0.000000    0.000000


           Symmetry 2

           O #1 z      H #2 z      CL#3 z

 O #1 z    0.000000
 H #2 z    0.000000    0.000000
 CL#3 z    0.000000    0.000000    0.000000




           O #1 x      O #1 y      O #1 z      H #2 x      H #2 y      H #2 z


           CL#3 x      CL#3 y      CL#3 z




                Electronic contributions to dipole moment
                -----------------------------------------

                               au             Debye

                    x      1.72948545      4.39591430
                    y      0.32647562      0.82981839

  Conversion factor used: 1 a.u. =   2.54174691 Debye 



   Electronic contributions to static part of dipole moment derivatives
   --------------------------------------------------------------------


                     Total dipole moment derivatives
                     -------------------------------


           Symmetry 1
                              Ex             Ey

               O #1 x    -8.85846277    -0.07863458
               O #1 y    -0.29660238    -8.83011645
               H #2 x    -0.35434375     0.10814948
               H #2 y     0.36693450    -0.31563006
               CL#3 x   -16.78719348    -0.02951490
               CL#3 y    -0.07033212   -16.85425348

           Symmetry 2
                              Ez

               O #1 z    -8.45253902
               H #2 z    -0.67218108
               CL#3 z   -16.87527990



                       Ex          Ey          Ez

      O #1    x   -8.858463   -0.078635    0.000000
      O #1    y   -0.296602   -8.830116    0.000000
      O #1    z    0.000000    0.000000   -8.452539

      H #2    x   -0.354344    0.108149    0.000000
      H #2    y    0.366935   -0.315630    0.000000
      H #2    z    0.000000    0.000000   -0.672181

      CL#3    x  -16.787193   -0.029515    0.000000
      CL#3    y   -0.070332  -16.854253    0.000000
      CL#3    z    0.000000    0.000000  -16.875280

 Evaluation of 1e integral derivatives required    1.57 seconds.
 Evaluation of 2el integral derivatives

                      Two-electron integral gradient
                      ------------------------------

                         O #1 x    11.1106967433
                         O #1 y    -2.4144104651
                         H #2 x     1.8624154793
                         H #2 y     2.5081894335
                         CL#3 x   -12.9731122226
                         CL#3 y    -0.0937789684


 O #1      11.1106967433           -2.4144104651            0.0000000000
 H #2       1.8624154793            2.5081894335            0.0000000000
 CL#3     -12.9731122226           -0.0937789684            0.0000000000


 Evaluation of 2e integral derivatives required  309.42 seconds.

                            Molecular gradient
                            ------------------

                         O #1 x    -0.0170123367
                         O #1 y     0.2692809112
                         H #2 x    -0.1426148465
                         H #2 y    -0.2875037553
                         CL#3 x     0.1596271832
                         CL#3 y     0.0182228441


 O #1      -0.0170123367            0.2692809112            0.0000000000
 H #2      -0.1426148465           -0.2875037553            0.0000000000
 CL#3       0.1596271832            0.0182228441            0.0000000000


  Molecular gradient norm 0.449E+00

                            Molecular hessian
                            -----------------


           Symmetry 1

           O #1 x      O #1 y      H #2 x      H #2 y      CL#3 x      CL#3 y

 O #1 x    2.176679
 O #1 y    1.709937    6.719584
 H #2 x   -0.396530   -2.773461    0.638936
 H #2 y   -1.982343   -6.947486    2.140970    6.807892
 CL#3 x   -1.780149    0.468934   -0.161761    0.000739    1.941910
 CL#3 y    0.272406    0.227901   -0.055280    0.065405   -0.217126   -0.293306


           Symmetry 2

           O #1 z      H #2 z      CL#3 z

 O #1 z   -0.438791
 H #2 z    0.512815   -0.501133
 CL#3 z   -0.074024   -0.030460    0.104484




           O #1 x      O #1 y      O #1 z      H #2 x      H #2 y      H #2 z

 O #1 x    2.176679
 O #1 y    1.709937    6.719584
 O #1 z    0.000000    0.000000   -0.438791

 H #2 x   -0.396530   -2.773461    0.000000    0.638936
 H #2 y   -1.982343   -6.947486    0.000000    2.140970    6.807892
 H #2 z    0.000000    0.000000    0.512815    0.000000    0.000000   -0.501133

 CL#3 x   -1.780149    0.468934    0.000000   -0.161761    0.000739    0.000000
 CL#3 y    0.272406    0.227901    0.000000   -0.055280    0.065405    0.000000
 CL#3 z    0.000000    0.000000   -0.074024    0.000000    0.000000   -0.030460


           CL#3 x      CL#3 y      CL#3 z

 CL#3 x    1.941910
 CL#3 y   -0.217126   -0.293306
 CL#3 z    0.000000    0.000000    0.104484




                           Total dipole moment
                           -------------------

                               au             Debye

                    x     -0.22471624     -0.57117182
                    y     -0.64635132     -1.64286147

  Conversion factor used: 1 a.u. =   2.54174691 Debye 



                     Total dipole moment derivatives
                     -------------------------------


           Symmetry 1
                              Ex             Ey

               O #1 x    -0.35761104    -0.01780426
               O #1 y    -0.03549409    -0.10276381
               H #2 x     0.21392937    -0.02945285
               H #2 y    -0.01457608     0.12567130
               CL#3 x     0.14368191     0.04725715
               CL#3 y     0.05007016    -0.02290755

           Symmetry 2
                              Ez

               O #1 z    -0.30487556
               H #2 z     0.30221338
               CL#3 z     0.00266234



                       Ex          Ey          Ez

      O #1    x   -0.357611   -0.017804    0.000000
      O #1    y   -0.035494   -0.102764    0.000000
      O #1    z    0.000000    0.000000   -0.304876

      H #2    x    0.213929   -0.029453    0.000000
      H #2    y   -0.014576    0.125671    0.000000
      H #2    z    0.000000    0.000000    0.302213

      CL#3    x    0.143682    0.047257    0.000000
      CL#3    y    0.050070   -0.022908    0.000000
      CL#3    z    0.000000    0.000000    0.002662

  Molecular gradient does not satisfy rotational invariance condition.
   rotational invariance in yz-plane :        0.0000E+00
   rotational invariance in xz-plane :        0.0000E+00
   rotational invariance in xy-plane :        -.4463E-02
 @CHECKOUT-I, Total execution time (CPU/WALL):      311.08/      45.04 seconds.
--executable xvdint finished with status     0 in       45.14 seconds (walltime).
 --invoking executable--
/home/asmola/.local/bin/xjoda
  @GTFLGS-I, Hessian will be transformed to curvilinear coordinates.
  @GTFLGS-I, Hessian will be transformed to curvilinear coordinates.
  igrd and ihes are                      0                     1
  gradient from JOBARC 
  -0.017012336733196   0.269280911191448   0.000000000000000
  -0.142614846487874  -0.287503755294696   0.000000000000000
   0.159627183221054   0.018222844103249   0.000000000000000
 
  @PROJFCM-I, Projecting force constant matrix onto totally symmetric subspace.
  Largest difference between matrix elements of symmetrized
  and unsymmetrized FCM :     0.0000000000E+00.
 
  Summary of diagonal Born-Oppenheimer correction at the correlated level
  The total diagonal Born-Oppenheimer correction (DBOC) is:      0.0087217708 a.u.
  The total diagonal Born-Oppenheimer correction (DBOC) is:       1914.207440 cm-1
  The total diagonal Born-Oppenheimer correction (DBOC) is:            22.899 kJ/mole
  hellooooooo 
  readis is  F
 
 @CHECKOUT-I, Total execution time (CPU/WALL):        0.01/       0.05 seconds.
--executable xjoda finished with status     0 in        0.09 seconds (walltime).
  The final electronic energy is      -535.744429839939357 a.u. 
  This computation required                         2938.02 seconds (walltime).
