 --invoking executable--
/home/asmola/.local/bin/xjoda


   *************************************************************************
         <<<     CCCCCC     CCCCCC   |||     CCCCCC     CCCCCC   >>>
       <<<      CCC        CCC       |||    CCC        CCC         >>>
      <<<      CCC        CCC        |||   CCC        CCC            >>>
    <<<        CCC        CCC        |||   CCC        CCC              >>>
      <<<      CCC        CCC        |||   CCC        CCC            >>>
       <<<      CCC        CCC       |||    CCC        CCC         >>>
         <<<     CCCCCC     CCCCCC   |||     CCCCCC     CCCCCC   >>>
   *************************************************************************

     ****************************************************************
     * CFOUR Coupled-Cluster techniques for Computational Chemistry *
     ****************************************************************
 

   Department of Chemistry                Institut fuer Physikalische Chemie
   University of Florida                  Universitaet Mainz
   Gainesville, FL 32611, USA             D-55099 Mainz, Germany

   Department of Chemistry                Fakultaet fuer Chemie und Biowiss.
   Johns Hopkins University               Karlsruher Institut fuer Technologie
   Baltimore, MD 21218, USA               D-76131 Karlsruhe, Germany

   Department of Chemistry                Department of Physical Chemistry
   Southern Methodist University          Eotvos Lorand University
   Dallas, TX 75275, USA                  H-1053 Budapest, Hungary

 
                       Version 2.1
 
                     vincent.theory.phys.ucl.ac.uk                     
                     Wed 29 Jan 19:27:40 GMT 2025                      
                     integer*8 version is running
 
********************************************************************************
*                          Input from ZMAT file                                *
********************************************************************************
Hypochlorous acid DBOC calculation                                              
O                                                                               
H 1 ROH                                                                         
CL 1 ROCL 2 A                                                                   
                                                                                
ROH=0.8500000000000002                                                          
ROCL=1.683                                                                      
A=107.0                                                                         
                                                                                
                                                                                
*CFOUR(CALC=CCSD,BASIS=AUG-PCVTZ,SCF_CONV=10                                    
CC_CONV=10,DBOC=ON,MEMORY=500000000)                                            
                                                                                
%isotopes                                                                       
16                                                                              
1                                                                               
37                                                                              
********************************************************************************
  @GTFLGS-I, Hessian will be transformed to curvilinear coordinates.
    -------------------------------------------------------------------
                    CFOUR Control Parameters 
    -------------------------------------------------------------------
        External           Internal           Value            Units
          Name               Name
    -------------------------------------------------------------------
       ABCDTYPE             IABCDT         STANDARD    [  0]    ***   
       ANHARMONIC           IANHAR         OFF         [  0]    ***   
       ANH_ALGORIT          IANALG         STANDARD    [  0]    ***   
       ANH_DERIVAT          IANDER         SECOND      [  1]    ***   
       ANH_MODE             ANHMOD         VIBRATION   [  0]    ***   
       ANH_STEPSIZ          ICUBST             50000          x 10-6  
       ANH_SYMMETR          IANHSM         ABELIAN     [  0]    ***   
       AO_LADDERS           IAOLAD         SINGLEPASS  [  1]    ***   
       AV_SCF               IAVSCF         OFF         [  0]    ***   
       BASIS                IBASIS         AUG-PCVTZ   [ 51]    ***   
       BOTHVECTORS          BOTHVC         OFF         [  0]    ***   
       BOX_POTENT           IPIAB          OFF         [  0]    ***   
       BREIT                IBREIT         OFF         [  0]    ***   
       BRUCK_CONV           IBRTOL          10D-  4             ***   
       BRUECKNER            IBRKNR         OFF         [  0]    ***   
       BUFFERSIZE           IBUFFS              4096            ***   
       CACHE_RECS           ICHREC             10               ***   
       CALCLEVEL            ICLLVL         CCSD        [ 10]    ***   
       CCORBOPT             ICCORB         OFF         [  0]  x 0.01  
       CC_CONV              ICCCNV          10D- 10             ***   
       CC_EXPORDER          ICCEOR              5               ***   
       CC_EXTRAPOL          ICCEXT         DIIS        [  1]    ***   
       CC_GUESS             ICCGES         MP2         [  0]    ***   
       CC_MAXCYC            ICCCYC            100              cycles 
       CC_PROGRAM           ICCPRO         VCC         [  0]    ***   
       CHARGE               ICHRGE              0               ***   
       CHOLESKY             ICHOLE         OFF         [  0]    ***   
       CIS_CONV             ICISTL              5               ***   
       COMM_SIZE            IPSIZE            ***               ***   
       CONSTANT             ICONST         OLD         [  1]    ***   
       CONTINUUM            ICONTU         NONE        [  0]    ***   
       CONTRACTION          ICNTYP         GENERAL     [  1]    ***   
       COORDINATES          ICOORD         INTERNAL    [  0]    ***   
       CPHF_CONVER          ICPHFT          10D- 16             ***   
       CPHF_MAXCYC          ICPHFC             64              cycles 
       CUBIC                ICUBIC         OFF         [  0]    ***   
       CURVILINEAR          ICURVY         ON          [  1]    ***   
       DBOC                 IDBOC          ON          [  1]    ***   
       DCT                  IDCT           OFF         [  0]    ***   
       DERIV_LEV            IDRLVL         SECOND      [  2]    ***   
       DEVMEM_SIZE          IDVMEM          50000000           MByte  
       DIAG_MRCC            IEOMST          10D-  0             ***   
       DIFF_TYPE            IDIFTY         RELAXED     [  0]    ***   
       DIRECT               IDIRCT         OFF         [  0]    ***   
       DROPMO               IDRPMO      NONE         
       ECP                  IECP           OFF         [  0]    ***   
       EIGENVECTOR          IVEC                1               ***   
       EL_ANHARM            IELANH         OFF         [  0]    ***   
       EOMFOLLOW            IEOMSR         ENERGY      [  0]    ***   
       EOMIP                IEOMIP         OFF         [  0]    ***   
       EOMLEVEL             HBARFM         SAME        [  0]    ***   
       EOM_MRCC             IMRCCE         NEW         [  1]    ***   
       EOM_NONIT            EOMNON         OFF         [  0]    ***   
       EOM_NSING            IEOMSI          10D-  0             ***   
       EOM_NSTATES          IMRCCD         DAVIDSON    [  0]    ***   
       EOM_NTRIP            IEOMTR          10D-  0             ***   
       EOM_ORDER            IEXORD         ENERGY      [  0]    ***   
       EOM_PROPSTA          IEOMST              0               ***   
       ESTATE_CONV          IEXTOL          10D-  5             ***   
       ESTATE_DIAG          IEXDIG         ITERATIVE   [  0]    ***   
       ESTATE_LOCK          IESLOC         ON          [  1]    ***   
       ESTATE_MAXC          IEXMXC             40               ***   
       ESTATE_PROP          IEXPRP         OFF         [  0]    ***   
       EVAL_HESS            IRECAL              0            # of cyc.
       EXCITATION           IEXCIT              0               ***   
       EXCITE               IEXCIT         NONE        [  0]    ***   
       EXTERN_POT           IEXPOT         OFF         [  0]    ***   
       FCGRADNEW            IFCGNW         OFF         [  0]    ***   
       FC_FIELD             IFINFC              0             x 10-6  
       FD_CALTYPE           IFDCAL         GRADONLY    [  0]    ***   
       FD_PROJECT           IFDPRJ         OFF         [  1]    ***   
       FD_STEPSIZE          IDISFD              0            10-4 bohr
       FD_USEGROUP          IFDGRP         FULL        [  0]    ***   
       FILE_RECSIZ          IFLREC              4096           words  
       FINITE_PERT          IFIPER              0             x 10-6  
       FIXGEOM              IFIXGM         OFF         [  0]    ***   
       FOCK                 IFOCK          AO          [  1]    ***   
       FREQ_ALGORI          IVIALG         STANDARD    [  0]    ***   
       FROZEN_CORE          IFROCO         OFF         [  0]    ***   
       GAMMA_ABCD           IGABCD         STORE       [  0]    ***   
       GAMMA_ABCI           IGABCI         STORE       [  0]    ***   
       GENBAS_1             IGNBS1              0               ***   
       GENBAS_2             IGNBS2              0               ***   
       GENBAS_3             IGNBS3              0               ***   
       GENBAS_4             IGNBS4              0               ***   
       GEO_CONV             ICONTL              5              H/bohr 
       GEO_MAXCYC           IOPTCY             50               ***   
       GEO_MAXSTEP          IMXSTP            300            millibohr
       GEO_METHOD           INR            SINGLE_POINT[  5]    ***   
       GIAO                 IGIAO          OFF         [  1]    ***   
       GIMIC                IGIMIC         OFF         [  0]    ***   
       GRID                 IGRID          OFF         [  0]    ***   
       GRID_ALGO            IGALGO         SERIAL      [  0]    ***   
       GUESS                IGUESS         MOREAD      [  0]    ***   
       HBAR                 IHBAR          OFF         [  0]    ***   
       HESS_TYPE            IHESTP         SCF         [  0]    ***   
       HF2_FILE             IHF2Fl         USE         [  1]    ***   
       HFSTABILITY          ISTABL         OFF         [  0]    ***   
       INCORE               INCORE         OFF         [  0]    ***   
       INPUT_MRCC           IMRCC          ON          [  1]    ***   
       INTEGRALS            INTTYP         VMOL        [  1]    ***   
       JODA_PRINT           IJPRNT              0               ***   
       KEYWORD_OUT          IDMPKW         NO          [  0]    ***   
       LINDEP_TOL           ILINDP              8               ***   
       LINEQ_CONV           IZTACN          10D-  7           cycles  
       LINEQ_EXPOR          ILMAXD              5               ***   
       LINEQ_MAXCY          ILMAXC            100               ***   
       LINEQ_TYPE           ILTYPE         DIIS        [  1]    ***   
       LOCK_ORBOCC          ILOCOC         OFF         [  0]    ***   
       MEMORY_SIZE          IMEMSZ         500000000           words  
       MEM_UNIT             IMEMU          INTEGERWORDS[  0]    ***   
       MRCC                 IMRCCC         OFF         [  0]    ***   
       MULTIPLICTY          IMULTP              1               ***   
       NACOUPLING           IVCOUP         OFF         [  0]    ***   
       NEGEVAL              IDIE           ABORT       [  0]    ***   
       NEWNORM              INEWNO         OFF         [  0]    ***   
       NON-HF               INONHF         OFF         [  0]    ***   
       NTOP_TAMP            ITOPT2             15               ***   
       NUC_MODEL            INUCMO         POINT       [  0]    ***   
       OCCUPATION           IOCCU   ESTIMATED BY SCF 
       OPEN-SHELL           IOPEN          SPIN-ORBITAL[  0]    ***   
       OPTVIB               IOPTVB         OFF         [  0]    ***   
       ORBITALS             IORBTP         STANDARD    [  0]    ***   
       PARALLEL             IPARAL         ON          [  1]    ***   
       PARA_INT             IPINTS         ON          [  1]    ***   
       PARA_PRINT           IPPRIN              0               ***   
       PERT_ORB             IPTORB         STANDARD    [  0]    ***   
       POINTS               IGRDFD              0               ***   
       PRINT                IPRNT               0               ***   
       PROPS                IPROPS         OFF         [  0]    ***   
       PROP_INTEGR          IINTYP         INTERNAL    [  0]    ***   
       PSI                  IPSI           OFF         [  0]    ***   
       QC_ALG               IQCALG         FLM         [  0]    ***   
       QC_LINALG            IQCLIN         TRIDIAG     [  2]    ***   
       QC_MAXCYC            IQCMAX          10D-100           cycles  
       QC_MAXSCFCY          IQCMSC          10D- 15           cycles  
       QC_RTRUST            IQCRTR          10D-  0           x 10-3  
       QC_SKIPSCF           IQCSKI         OFF         [  0]    ***   
       QC_START             IQCSTA          10D-  1             ***   
       QRHFGUESS            IQGUES         OFF         [  0]    ***   
       QUARTIC              IQUART         OFF         [  0]    ***   
       RAMAN_INT            IRAMIN         OFF         [  0]    ***   
       RAMAN_ORB            IRAMRE         UNRELAXED   [  0]    ***   
       RDO                  IRDOFM         ON          [  1]    ***   
       REDUCE_REPR          REDREP         Ir          [  0]    ***   
       REFERENCE            IREFNC         RHF         [  0]    ***   
       RELATIVIST           IRELAT         OFF         [  0]    ***   
       RELAX_DENS           IRDENS         ON          [  1]    ***   
       RESET_FLAGS          IRESET         OFF         [  0]    ***   
       RESTART_CC           ICCRES         OFF         [  0]    ***   
       ROT_EVEC             ROTVEC              0               ***   
       SAVE_INTS            ISVINT         OFF         [  0]    ***   
       SCALE_ON             ISTCRT              0               ***   
       SCF_CONV             ISCFCV          10D- 10             ***   
       SCF_DAMPING          IDAMP               0             x 10-3  
       SCF_EXPORDE          IRPPOR              6               ***   
       SCF_EXPSTAR          IRPPLS              8               ***   
       SCF_EXTRAPO          IRPP           ON          [  1]    ***   
       SCF_MAXCYC           ISCFCY            150              cycles 
       SCF_NOSTOP           ISCFST         OFF         [  0]    ***   
       SCF_PRINT            ISCFPR              0               ***   
       SCF_PROG             ISCFPR         SCF         [  0]    ***   
       SD_FIELD             IFINSD              0             x 10-6  
       SOPERT               IPERSO         OFF         [  0]    ***   
       SPHERICAL            IDFGHI         ON          [  1]    ***   
       SPINORBIT            ISOCAL         OFF         [  0]    ***   
       SPINROTATIO          ISRCON         OFF         [  0]    ***   
       SPIN_FLIP            ISPFLP         OFF         [  0]    ***   
       SPIN_ORBIT           ISPORB         OFF         [  0]    ***   
       SPIN_SCAL            ISCSMP         OFF         [  0]    ***   
       STEEPSCALE           ISTPSC              1000          x 10-3  
       SUBGROUP             ISUBGP         DEFAULT     [  0]    ***   
       SUBGRPAXIS           ISBXYZ         X           [  0]    ***   
       SYMMETRY             ISYM           ON          [  0]    ***   
       SYM_CHECK            ISYMCK         OVERRIDE    [  1]    ***   
       T3_EXTRAPOL          IT3EXT         OFF         [  0]    ***   
       T4_EXTRAPOL          IT4EXP         OFF         [  0]    ***   
       TAMP_SUM             IEVERY              5               ***   
       TESTSUITE            ITESTS         OFF         [  0]    ***   
       THERMOCH             ITHERM         OFF         [  0]    ***   
       TOL_CHOLESK          ITOLCH          10D-  4             ***   
       TRANGRAD             IRESRM         OFF         [  0]    ***   
       TRANS_INV            ITRAIN         IGNORE      [  1]    ***   
       TREAT_PERT           ITREAT         SIMULTANEOUS[  0]    ***   
       TRIP_ALGORI          ITRALG         NORMAL      [  0]    ***   
       UIJ_THRESHO          IUIJTH              1               ***   
       UNITS                IUNITS         ANGSTROM    [  0]    ***   
       UNOS                 IUNOS          OFF         [  0]    ***   
       UPDATE_HESS          IHUPDT         ON          [  1]    ***   
       VIBPHASE             ISETPH         STANDARD    [  0]    ***   
       VIBRATION            IVIB           ANALYTIC    [  1]    ***   
       VIB_ALGORIT          IGEALG         STANDARD    [  0]    ***   
       VNATORB              IVNORB         OFF         [  0]    ***   
       VTRAN                IVTRAN         FULL/PARTIAL[  0]    ***   
       XFIELD               IXEFLD              0             x 10-6  
       XFORM_TOL            IXFTOL          10D- 11             ***   
       YFIELD               IYEFLD              0             x 10-6  
       ZFIELD               IZEFLD              0             x 10-6  
       ZSCALE_EXP           IZEXPS         OFF         [  0]    ***   
    -------------------------------------------------------------------
   3 entries found in Z-matrix 
   Job Title : Hypochlorous acid DBOC calculation                                              
   There are  3 unique internal coordinates.
   Of these,  0 will be optimized.
   User supplied Z-matrix: 
--------------------------------------------------------------------------------
       SYMBOL    BOND      LENGTH    ANGLE     ANGLE     DIHED     ANGLE
                  TO      (ANGST)    WRT      (DEG)      WRT      (DEG)
--------------------------------------------------------------------------------
        O    
        H          1         ROH  
        CL         1         ROCL       2        A    
                  *Initial values for internal coordinates* 
                      Name             Value
                        ROH             0.8500000000
                        ROCL            1.6830000000
                        A             107.0000000000
--------------------------------------------------------------------------------
  read isotopes from ZMAT file 
   Rotational constants (in cm-1): 
          0.4917726494             0.5007390854            27.4635081431
   Rotational constants (in MHz): 
      14742.9752002397         15011.7822251455        823335.3765002242
********************************************************************************
   The full molecular point group is C s .
   The largest Abelian subgroup of the full molecular point group is C s .
   The computational point group is C s .
********************************************************************************
--------------------------------------------------------------------------------
   Analysis of internal coordinates specified by Z-matrix 
--------------------------------------------------------------------------------
   *The nuclear repulsion energy is   52.035107612231613 a.u.
   *There are   3 degrees of freedom within the tot. symm. molecular subspace.
   *Z-matrix requests optimization of   0 coordinates.
   *The optimization is constrained.
   *The following   3 parameters can have non-zero 
    derivatives within the totally symmetric subspace:
             A    [ 3]  ROH  [ 1]  ROCL [ 2]
   *The following   0 parameters are to be optimized:

   *The following coordinates must be varied in an  unconstrained optimization.
             A    [ 3]  ROH  [ 1]  ROCL [ 2]
--------------------------------------------------------------------------------


 ----------------------------------------------------------------
         Coordinates used in calculation (QCOMP) 
 ----------------------------------------------------------------
 Z-matrix   Atomic            Coordinates (in bohr)
  Symbol    Number           X              Y              Z
 ----------------------------------------------------------------
     O         8        -2.16736091     0.10382086     0.00000000
     H         1        -2.68991328    -1.41507164    -0.00000000
     CL       17         1.01114032    -0.00634263    -0.00000000
 ----------------------------------------------------------------
 
   Interatomic distance matrix (Angstroms) 
 
                 O             H             CL   
                [ 1]        [ 2]        [ 3]
  O    [ 1]     0.00000
  H    [ 2]     0.85000     0.00000
  CL   [ 3]     1.68300     2.09559     0.00000
 rotcon2
   Rotational constants (in cm-1): 
         27.4635081431             0.5007390854             0.4917726494
   Rotational constants (in MHz): 
     823335.3765002483         15011.7822251455         14742.9752002397
  ECPDATA file not present.   Using default ECPDATA. 
  @GTFLGS-I, Hessian will be transformed to curvilinear coordinates.
  There are  157 basis functions.
 @CHECKOUT-I, Total execution time (CPU/WALL):        0.24/       0.30 seconds.
--executable xjoda finished with status     0 in        0.35 seconds (walltime).
 --invoking executable--
/home/asmola/.local/bin/xvmol
 SERIAL VERSION OF MOLECULE STARTED
********************************************************************************
                    INPUT FROM MOL FILE
********************************************************************************
INTGRL        1    0    1    0    0    0    0    0    0                         
         *** CFOUR Program System (Release V0.1) ***                            
Hypochlorous acid DBOC calculation                                              
    3    1 Z          0.10E-08              0    0                              
   9999.00      3.00                                                            
          8.00000000    1    4    1    1    1    1                              
O #1  -2.167360910005504   0.103820862933900   0.000000000000000                
   13    7                                                                      
   15330.0000000000       5.080000000000000E-004 -1.150000000000000E-004        
  0.000000000000000E+000  0.000000000000000E+000  0.000000000000000E+000        
  0.000000000000000E+000  0.000000000000000E+000                                
   2299.00000000000       3.929000000000000E-003 -8.950000000000000E-004        
  0.000000000000000E+000  0.000000000000000E+000  0.000000000000000E+000        
  0.000000000000000E+000  0.000000000000000E+000                                
   522.400000000000       2.024300000000000E-002 -4.636000000000000E-003        
  0.000000000000000E+000  0.000000000000000E+000  0.000000000000000E+000        
  0.000000000000000E+000  0.000000000000000E+000                                
   147.300000000000       7.918100000000000E-002 -1.872400000000000E-002        
  0.000000000000000E+000  0.000000000000000E+000  0.000000000000000E+000        
  0.000000000000000E+000  0.000000000000000E+000                                
   47.5500000000000       0.230687000000000      -5.846300000000000E-002        
  0.000000000000000E+000  0.000000000000000E+000  0.000000000000000E+000        
  0.000000000000000E+000  0.000000000000000E+000                                
   16.7600000000000       0.433118000000000      -0.136463000000000             
  0.000000000000000E+000  0.000000000000000E+000  0.000000000000000E+000        
  0.000000000000000E+000  0.000000000000000E+000                                
   6.20700000000000       0.350260000000000      -0.175740000000000             
  0.000000000000000E+000  0.000000000000000E+000  0.000000000000000E+000        
  0.000000000000000E+000  0.000000000000000E+000                                
   1.75200000000000       4.272800000000000E-002  0.160934000000000             
   1.00000000000000       0.000000000000000E+000  0.000000000000000E+000        
  0.000000000000000E+000  0.000000000000000E+000                                
  0.688200000000000      -8.154000000000000E-003  0.603418000000000             
  0.000000000000000E+000  0.000000000000000E+000  0.000000000000000E+000        
  0.000000000000000E+000  0.000000000000000E+000                                
  0.238400000000000       2.381000000000000E-003  0.378765000000000             
  0.000000000000000E+000   1.00000000000000       0.000000000000000E+000        
  0.000000000000000E+000  0.000000000000000E+000                                
   7.84500000000000       0.000000000000000E+000  0.000000000000000E+000        
  0.000000000000000E+000  0.000000000000000E+000   1.00000000000000             
  0.000000000000000E+000  0.000000000000000E+000                                
   21.0320000000000       0.000000000000000E+000  0.000000000000000E+000        
  0.000000000000000E+000  0.000000000000000E+000  0.000000000000000E+000        
   1.00000000000000       0.000000000000000E+000                                
  7.376000000000001E-002  0.000000000000000E+000  0.000000000000000E+000        
  0.000000000000000E+000  0.000000000000000E+000  0.000000000000000E+000        
  0.000000000000000E+000   1.00000000000000                                     
    8    6                                                                      
   34.4600000000000       1.592800000000000E-002  0.000000000000000E+000        
  0.000000000000000E+000  0.000000000000000E+000  0.000000000000000E+000        
  0.000000000000000E+000                                                        
   7.74900000000000       9.974000000000000E-002  0.000000000000000E+000        
  0.000000000000000E+000  0.000000000000000E+000  0.000000000000000E+000        
  0.000000000000000E+000                                                        
   2.28000000000000       0.310492000000000       0.000000000000000E+000        
  0.000000000000000E+000  0.000000000000000E+000  0.000000000000000E+000        
  0.000000000000000E+000                                                        
  0.715600000000000       0.491026000000000        1.00000000000000             
  0.000000000000000E+000  0.000000000000000E+000  0.000000000000000E+000        
  0.000000000000000E+000                                                        
  0.214000000000000       0.336337000000000       0.000000000000000E+000        
   1.00000000000000       0.000000000000000E+000  0.000000000000000E+000        
  0.000000000000000E+000                                                        
   15.1590000000000       0.000000000000000E+000  0.000000000000000E+000        
  0.000000000000000E+000   1.00000000000000       0.000000000000000E+000        
  0.000000000000000E+000                                                        
   57.4370000000000       0.000000000000000E+000  0.000000000000000E+000        
  0.000000000000000E+000  0.000000000000000E+000   1.00000000000000             
  0.000000000000000E+000                                                        
  5.974000000000000E-002  0.000000000000000E+000  0.000000000000000E+000        
  0.000000000000000E+000  0.000000000000000E+000  0.000000000000000E+000        
   1.00000000000000                                                             
    4    4                                                                      
   2.31400000000000        1.00000000000000       0.000000000000000E+000        
  0.000000000000000E+000  0.000000000000000E+000                                
  0.645000000000000       0.000000000000000E+000   1.00000000000000             
  0.000000000000000E+000  0.000000000000000E+000                                
   15.8580000000000       0.000000000000000E+000  0.000000000000000E+000        
   1.00000000000000       0.000000000000000E+000                                
  0.214000000000000       0.000000000000000E+000  0.000000000000000E+000        
  0.000000000000000E+000   1.00000000000000                                     
    2    2                                                                      
   1.42800000000000        1.00000000000000       0.000000000000000E+000        
  0.500000000000000       0.000000000000000E+000   1.00000000000000             
          1.00000000    1    3    1    1    1                                   
H #2  -2.689913283906657  -1.415071639791730  -0.000000000000003                
    6    4                                                                      
   33.8700000000000       6.068000000000000E-003  0.000000000000000E+000        
  0.000000000000000E+000  0.000000000000000E+000                                
   5.09500000000000       4.530800000000000E-002  0.000000000000000E+000        
  0.000000000000000E+000  0.000000000000000E+000                                
   1.15900000000000       0.202822000000000       0.000000000000000E+000        
  0.000000000000000E+000  0.000000000000000E+000                                
  0.325800000000000       0.503903000000000        1.00000000000000             
  0.000000000000000E+000  0.000000000000000E+000                                
  0.102700000000000       0.383421000000000       0.000000000000000E+000        
   1.00000000000000       0.000000000000000E+000                                
  2.526000000000000E-002  0.000000000000000E+000  0.000000000000000E+000        
  0.000000000000000E+000   1.00000000000000                                     
    3    3                                                                      
   1.40700000000000        1.00000000000000       0.000000000000000E+000        
  0.000000000000000E+000                                                        
  0.388000000000000       0.000000000000000E+000   1.00000000000000             
  0.000000000000000E+000                                                        
  0.102000000000000       0.000000000000000E+000  0.000000000000000E+000        
   1.00000000000000                                                             
    2    2                                                                      
   1.05700000000000        1.00000000000000       0.000000000000000E+000        
  0.247000000000000       0.000000000000000E+000   1.00000000000000             
         17.00000000    1    4    1    1    1    1                              
CL#3   1.011140321979167  -0.006342634642261  -0.000000000000000                
   18    8                                                                      
   456100.000000000       4.930000000000000E-005 -1.380000000000000E-005        
  4.200000000000000E-006  0.000000000000000E+000  0.000000000000000E+000        
  0.000000000000000E+000  0.000000000000000E+000  0.000000000000000E+000        
   68330.0000000000       3.830000000000000E-004 -1.073000000000000E-004        
  3.240000000000000E-005  0.000000000000000E+000  0.000000000000000E+000        
  0.000000000000000E+000  0.000000000000000E+000  0.000000000000000E+000        
   15550.0000000000       2.008500000000000E-003 -5.651000000000000E-004        
  1.711000000000000E-004  0.000000000000000E+000  0.000000000000000E+000        
  0.000000000000000E+000  0.000000000000000E+000  0.000000000000000E+000        
   4405.00000000000       8.385600000000000E-003 -2.361400000000000E-003        
  7.142000000000000E-004  0.000000000000000E+000  0.000000000000000E+000        
  0.000000000000000E+000  0.000000000000000E+000  0.000000000000000E+000        
   1439.00000000000       2.947030000000000E-002 -8.458900000000000E-003        
  2.567000000000000E-003  0.000000000000000E+000  0.000000000000000E+000        
  0.000000000000000E+000  0.000000000000000E+000  0.000000000000000E+000        
   520.400000000000       8.783249999999999E-002 -2.596380000000000E-002        
  7.885500000000000E-003  0.000000000000000E+000  0.000000000000000E+000        
  0.000000000000000E+000  0.000000000000000E+000  0.000000000000000E+000        
   203.100000000000       0.211473000000000      -6.863619999999999E-002        
  2.108670000000000E-002  0.000000000000000E+000  0.000000000000000E+000        
  0.000000000000000E+000  0.000000000000000E+000  0.000000000000000E+000        
   83.9600000000000       0.365364000000000      -0.141874000000000             
  4.422640000000000E-002  0.000000000000000E+000  0.000000000000000E+000        
  0.000000000000000E+000  0.000000000000000E+000  0.000000000000000E+000        
   36.2000000000000       0.340884000000000      -0.199319000000000             
  6.516700000000000E-002  0.000000000000000E+000  0.000000000000000E+000        
  0.000000000000000E+000  0.000000000000000E+000  0.000000000000000E+000        
   15.8300000000000       0.102133000000000      -1.956620000000000E-002        
  6.030100000000000E-003  0.000000000000000E+000  0.000000000000000E+000        
  0.000000000000000E+000  0.000000000000000E+000  0.000000000000000E+000        
   6.33400000000000       3.116800000000000E-003  0.499741000000000             
 -0.206495000000000       0.000000000000000E+000  0.000000000000000E+000        
  0.000000000000000E+000  0.000000000000000E+000  0.000000000000000E+000        
   2.69400000000000       1.057500000000000E-003  0.563736000000000             
 -0.405871000000000       0.000000000000000E+000  0.000000000000000E+000        
  0.000000000000000E+000  0.000000000000000E+000  0.000000000000000E+000        
  0.976800000000000      -3.780000000000000E-004  7.903250000000001E-002        
  7.595580000000000E-002   1.00000000000000       0.000000000000000E+000        
  0.000000000000000E+000  0.000000000000000E+000  0.000000000000000E+000        
  0.431300000000000       1.561000000000000E-004 -8.350900000000000E-003        
  0.725661000000000       0.000000000000000E+000  0.000000000000000E+000        
  0.000000000000000E+000  0.000000000000000E+000  0.000000000000000E+000        
  0.162500000000000      -5.140000000000000E-005  2.324600000000000E-003        
  0.394423000000000       0.000000000000000E+000   1.00000000000000             
  0.000000000000000E+000  0.000000000000000E+000  0.000000000000000E+000        
   15.0640000000000       0.000000000000000E+000  0.000000000000000E+000        
  0.000000000000000E+000  0.000000000000000E+000  0.000000000000000E+000        
   1.00000000000000       0.000000000000000E+000  0.000000000000000E+000        
   2.87400000000000       0.000000000000000E+000  0.000000000000000E+000        
  0.000000000000000E+000  0.000000000000000E+000  0.000000000000000E+000        
  0.000000000000000E+000   1.00000000000000       0.000000000000000E+000        
  5.910000000000000E-002  0.000000000000000E+000  0.000000000000000E+000        
  0.000000000000000E+000  0.000000000000000E+000  0.000000000000000E+000        
  0.000000000000000E+000  0.000000000000000E+000   1.00000000000000             
   12    7                                                                      
   663.300000000000       2.404500000000000E-003 -6.521000000000000E-004        
  0.000000000000000E+000  0.000000000000000E+000  0.000000000000000E+000        
  0.000000000000000E+000  0.000000000000000E+000                                
   156.800000000000       1.921480000000000E-002 -5.194500000000000E-003        
  0.000000000000000E+000  0.000000000000000E+000  0.000000000000000E+000        
  0.000000000000000E+000  0.000000000000000E+000                                
   49.9800000000000       8.850970000000000E-002 -2.469380000000000E-002        
  0.000000000000000E+000  0.000000000000000E+000  0.000000000000000E+000        
  0.000000000000000E+000  0.000000000000000E+000                                
   18.4200000000000       0.256020000000000      -7.281670000000000E-002        
  0.000000000000000E+000  0.000000000000000E+000  0.000000000000000E+000        
  0.000000000000000E+000  0.000000000000000E+000                                
   7.24000000000000       0.436927000000000      -0.134030000000000             
  0.000000000000000E+000  0.000000000000000E+000  0.000000000000000E+000        
  0.000000000000000E+000  0.000000000000000E+000                                
   2.92200000000000       0.350334000000000      -9.477420000000000E-002        
  0.000000000000000E+000  0.000000000000000E+000  0.000000000000000E+000        
  0.000000000000000E+000  0.000000000000000E+000                                
   1.02200000000000       5.854950000000000E-002  0.262289000000000             
   1.00000000000000       0.000000000000000E+000  0.000000000000000E+000        
  0.000000000000000E+000  0.000000000000000E+000                                
  0.381800000000000      -4.584200000000000E-003  0.564667000000000             
  0.000000000000000E+000  0.000000000000000E+000  0.000000000000000E+000        
  0.000000000000000E+000  0.000000000000000E+000                                
  0.130100000000000       2.269700000000000E-003  0.341250000000000             
  0.000000000000000E+000   1.00000000000000       0.000000000000000E+000        
  0.000000000000000E+000  0.000000000000000E+000                                
   9.48000000000000       0.000000000000000E+000  0.000000000000000E+000        
  0.000000000000000E+000  0.000000000000000E+000   1.00000000000000             
  0.000000000000000E+000  0.000000000000000E+000                                
   3.66800000000000       0.000000000000000E+000  0.000000000000000E+000        
  0.000000000000000E+000  0.000000000000000E+000  0.000000000000000E+000        
   1.00000000000000       0.000000000000000E+000                                
  4.190000000000000E-002  0.000000000000000E+000  0.000000000000000E+000        
  0.000000000000000E+000  0.000000000000000E+000  0.000000000000000E+000        
  0.000000000000000E+000   1.00000000000000                                     
    5    5                                                                      
   1.04600000000000        1.00000000000000       0.000000000000000E+000        
  0.000000000000000E+000  0.000000000000000E+000  0.000000000000000E+000        
  0.344000000000000       0.000000000000000E+000   1.00000000000000             
  0.000000000000000E+000  0.000000000000000E+000  0.000000000000000E+000        
   17.9570000000000       0.000000000000000E+000  0.000000000000000E+000        
   1.00000000000000       0.000000000000000E+000  0.000000000000000E+000        
   5.76000000000000       0.000000000000000E+000  0.000000000000000E+000        
  0.000000000000000E+000   1.00000000000000       0.000000000000000E+000        
  0.135000000000000       0.000000000000000E+000  0.000000000000000E+000        
  0.000000000000000E+000  0.000000000000000E+000   1.00000000000000             
    3    3                                                                      
  0.706000000000000        1.00000000000000       0.000000000000000E+000        
  0.000000000000000E+000                                                        
   11.7790000000000       0.000000000000000E+000   1.00000000000000             
  0.000000000000000E+000                                                        
  0.312000000000000       0.000000000000000E+000  0.000000000000000E+000        
   1.00000000000000                                                             
FINISH                                                                          
 
********************************************************************************
 ONE- AND TWO-ELECTRON INTEGRALS OVER SYMMETRY-ADAPTED AOS ARE CALCULATED.

  SPHERICAL HARMONICS ARE USED.
  
  INTEGRALS LESS THAN  0.10E-13 ARE NEGLECTED.

  NUCLEAR REPULSION ENERGY :   52.0351076122 A.U.
  @MOLECU-I, ONE ELECTRON INTEGRALS (CPU/WALL):        0.04/       0.04 SECONDS.
  @TWOEL-I,   14247762 INTEGRALS OF SYMMETRY TYPE  I I I I
  @TWOEL-I,   13490506 INTEGRALS OF SYMMETRY TYPE  I J I J
  @TWOEL-I,    6955533 INTEGRALS OF SYMMETRY TYPE  I I J J
  @TWOEL-I, TOTAL NUMBER OF 2-E INTEGRALS   34693801.
  @MOLECU-I, TWO ELECTRON INTEGRALS (CPU/WALL):       60.65/      10.15 SECONDS.
 @CHECKOUT-I, Total execution time (CPU/WALL):       60.71/      10.22 seconds.

Running with 14 threads/proc

--executable xvmol finished with status     0 in       10.27 seconds (walltime).
 --invoking executable--
/home/asmola/.local/bin/xvmol2ja
 @GETMEM-I,  Allocated    3814 MB of main memory.
 @CHECKOUT-I, Total execution time (CPU/WALL):        0.12/       0.03 seconds.
--executable xvmol2ja finished with status     0 in        0.06 seconds (walltime).
 --invoking executable--
/home/asmola/.local/bin/xvscf
  There are  157 functions in the AO basis.

  There are 2 irreducible representations.

       Irrep        # of functions
         1                104
         2                 53


  Parameters for SCF calculation: 
        SCF reference function:  RHF  
  Maximum number of iterations:  150
     Full symmetry point group: C s 
     Computational point group: C s 
        Initial density matrix: MOREAD                 
     SCF convergence tolerance: 10**(-10)
  DIIS convergence acceleration:  ON
          Latest start for DIIS:   8
                     DIIS order:   6

  Memory information:    1209746 words required.
  Fock matrices are constructed from AO integral file.
 @GETMEM-I,  Allocated       9 MB of main memory.
  Initialization and symmetry analysis required      0.001 seconds.

  @INITGES-I, Occupancies from core Hamiltonian:

          Alpha population by irrep:  10    3
           Beta population by irrep:  10    3


 total no. of electrons in initial guess :  0.000000000000000E+000
  --------------------------------------------------------------------
  Iteration         Total Energy            Largest Density Difference
  --------------------------------------------------------------------
       0            52.035107612231613              0.0000000000D+00
   current occupation vector 
    10  3
    10  3
       1          -364.799215559151605              0.1326100365D+02
   current occupation vector 
    10  3
    10  3
       2          -337.269737863456783              0.1324794723D+02
   current occupation vector 
    10  3
    10  3
       3          -420.634098634702013              0.1075734306D+02
   current occupation vector 
    10  3
    10  3
       4          -334.650683977417600              0.1075793442D+02
   current occupation vector 
    10  3
    10  3
       5          -420.311579661378914              0.1067224872D+02
   current occupation vector 
    10  3
    10  3
       6          -334.502171912844403              0.1067224563D+02
   current occupation vector 
    10  3
    10  3
       7          -420.289122144753378              0.1066579264D+02
   current occupation vector 
    10  3
    10  3
       8          -334.492164098599915              0.1066578950D+02
   current occupation vector 
    10  3
    10  3
       9          -447.462416854487742              0.9080153458D+01
   current occupation vector 
    10  3
    10  3
      10          -466.463645521484295              0.2092266831D+01
   current occupation vector 
    10  3
    10  3
      11          -478.636770947430477              0.1561008883D+01
   current occupation vector 
    10  3
    10  3
      12          -486.287938972886991              0.9274083244D+00
   current occupation vector 
    10  3
    10  3
      13          -487.470928677935831              0.1364490967D+00
   current occupation vector 
    10  3
    10  3
      14          -489.850502833040196              0.2766323818D+00
   current occupation vector 
    10  3
    10  3
      15          -506.082552523523873              0.8025437622D+01
   current occupation vector 
    10  3
    10  3
      16          -524.014536964903527              0.7855911034D+01
   current occupation vector 
    11  2
    11  2
      17          -526.886919920266905              0.4577157691D+01
   current occupation vector 
    11  2
    11  2
      18          -533.236287230404173              0.3045649102D+01
   current occupation vector 
    10  3
    10  3
      19          -534.369620716876966              0.7560680338D+00
   current occupation vector 
    10  3
    10  3
      20          -534.851758263299416              0.5335819806D+00
   current occupation vector 
    10  3
    10  3
      21          -534.909418560586914              0.2647555987D+00
   current occupation vector 
    10  3
    10  3
      22          -534.912084537251758              0.4531875599D-01
   current occupation vector 
    10  3
    10  3
      23          -534.912780550042271              0.3283652882D-01
   current occupation vector 
    10  3
    10  3
      24          -534.912890558412300              0.1286567536D-01
   current occupation vector 
    10  3
    10  3
      25          -534.912907319870442              0.5432273589D-02
   current occupation vector 
    10  3
    10  3
      26          -534.912909030147375              0.1702353596D-02
   current occupation vector 
    10  3
    10  3
      27          -534.912909290848347              0.7754628311D-03
   current occupation vector 
    10  3
    10  3
      28          -534.912909325625265              0.3055477327D-03
   current occupation vector 
    10  3
    10  3
      29          -534.912909327476996              0.8425649966D-04
   current occupation vector 
    10  3
    10  3
      30          -534.912909327543616              0.9870394748D-05
   current occupation vector 
    10  3
    10  3
      31          -534.912909327561124              0.5797169153D-05
   current occupation vector 
    10  3
    10  3
      32          -534.912909327561806              0.1235640206D-05
   current occupation vector 
    10  3
    10  3
      33          -534.912909327567377              0.7004503162D-06
   current occupation vector 
    10  3
    10  3
      34          -534.912909327565899              0.1774148071D-06
   current occupation vector 
    10  3
    10  3
      35          -534.912909327559873              0.1058081220D-06
   current occupation vector 
    10  3
    10  3
      36          -534.912909327562716              0.3396934217D-07
   current occupation vector 
    10  3
    10  3
      37          -534.912909327567718              0.1174183073D-07
   current occupation vector 
    10  3
    10  3
      38          -534.912909327566467              0.4133295622D-08
   current occupation vector 
    10  3
    10  3
      39          -534.912909327567036              0.1219523788D-08
   current occupation vector 
    10  3
    10  3
      40          -534.912909327559419              0.3930504811D-09
   current occupation vector 
    10  3
    10  3

  SCF has converged.

 Density matrix saved to file den.dat
 total electron number:   26.0000000000002     
     E(SCF)=      -534.912909327565558              0.8302269983D-10

  Eigenvector printing suppressed.

 @PUTMOS-I, Writing converged MOs to NEWMOS. 
 @PUTMOS-I, Symmetry   1 Full Blocks 26 Partial Blocksize   0
 @PUTMOS-I, Symmetry   2 Full Blocks 13 Partial Blocksize   1
 @PUTFOCK-I, Writing converged Fock matrix to NEWFOCK. 
 @PUTFOCK-I, Symmetry   1 Full Blocks 26 Partial Blocksize   0
 @PUTFOCK-I, Symmetry   2 Full Blocks 13 Partial Blocksize   1


 
  ORBITAL EIGENVALUES (ALPHA)  (1H = 27.2113834 eV)

       MO #        E(hartree)               E(eV)           FULLSYM    COMPSYM
       ----   --------------------   --------------------   -------   ---------
    1     1        -104.8950478781       -2854.3393645725     A'        A'  (1)
    2     2         -20.6296427352        -561.3611178730     A'        A'  (1)
    3     3         -10.6148357200        -288.8443645039     A'        A'  (1)
    4     4          -8.0815647724        -219.9105574942     A'        A'  (1)
    5     5          -8.0791966424        -219.8461173994     A'        A'  (1)
    6   105          -8.0790447075        -219.8419830410     A''       A'' (2)
    7     6          -1.4447698201         -39.3141854985     A'        A'  (1)
    8     7          -1.0774662443         -29.3193470742     A'        A'  (1)
    9     8          -0.7511098086         -20.4387369776     A'        A'  (1)
   10   106          -0.6186948796         -16.8355435764     A''       A'' (2)
   11     9          -0.6103317832         -16.6079721532     A'        A'  (1)
   12    10          -0.4726825858         -12.8623470684     A'        A'  (1)
   13   107          -0.4468196700         -12.1585813511     A''       A'' (2)
  +++++++++++++++++++++++++++++++++++++++++++++++++++++++++++++++++++++++++++++
   14    11           0.0304928779           0.8297533906     A'        A'  (1)
   15    12           0.0615927212           1.6760231499     A'        A'  (1)
   16    13           0.1096340369           2.9832938126     A'        A'  (1)
   17   108           0.1153750690           3.1395152366     A''       A'' (2)
   18    14           0.1402676949           3.8168780239     A'        A'  (1)
   19    15           0.1583324228           4.3084442606     A'        A'  (1)
   20    16           0.1716069181           4.6696616416     A'        A'  (1)
   21    17           0.1803945752           4.9087859493     A'        A'  (1)
   22   109           0.1852619283           5.0412333612     A''       A'' (2)
   23    18           0.2504580151           6.8153090737     A'        A'  (1)
   24   110           0.2639580339           7.1826632627     A''       A'' (2)
   25    19           0.3118723659           8.4864785214     A'        A'  (1)
   26    20           0.3191721687           8.6851162532     A'        A'  (1)
   27   111           0.3846834781          10.4677696093     A''       A'' (2)
   28    21           0.3917665811          10.6605106405     A'        A'  (1)
   29   112           0.4183535467          11.3839787573     A''       A'' (2)
   30    22           0.4404271065          11.9846308549     A'        A'  (1)
   31    23           0.4506672403          12.2632790605     A'        A'  (1)
   32    24           0.4997602392          13.5991674779     A'        A'  (1)
   33   113           0.6113989466          16.6370111450     A''       A'' (2)
   34    25           0.6143690031          16.7178304916     A'        A'  (1)
   35    26           0.6766034711          18.4113164624     A'        A'  (1)
   36    27           0.7087962444          19.2873263578     A'        A'  (1)
   37   114           0.7159716364          19.4825787027     A''       A'' (2)
   38    28           0.7181476999          19.5417923992     A'        A'  (1)
   39   115           0.7669959070          20.8710196922     A''       A'' (2)
   40    29           0.7860013894          21.3881851608     A'        A'  (1)
   41    30           0.8698303037          23.6692858862     A'        A'  (1)
   42   116           0.8814410067          23.9852291784     A''       A'' (2)
   43    31           0.8979285568          24.4338782258     A'        A'  (1)
   44   117           0.9034575673          24.5843302489     A''       A'' (2)
   45    32           0.9152607071          24.9055100113     A'        A'  (1)
   46   118           0.9226757690          25.1072841041     A''       A'' (2)
   47    33           0.9391092175          25.5544609706     A'        A'  (1)
   48    34           0.9593329663          26.1047771537     A'        A'  (1)
   49    35           1.0048139176          27.3423767569     A'        A'  (1)
   50   119           1.0191787312          27.7332632089     A''       A'' (2)
   51    36           1.0587059444          28.8088533615     A'        A'  (1)
   52    37           1.1168632383          30.3913937835     A'        A'  (1)
   53   120           1.1177106371          30.4144526765     A''       A'' (2)
   54   121           1.2308581654          33.4933534505     A''       A'' (2)
   55    38           1.2370072690          33.6606790658     A'        A'  (1)
   56    39           1.2962997484          35.2741094564     A'        A'  (1)
   57    40           1.3528339116          36.8124822437     A'        A'  (1)
   58    41           1.3912238102          37.8571244957     A'        A'  (1)
   59   122           1.4223352345          38.7037093888     A''       A'' (2)
   60   123           1.5133080583          41.1792057779     A''       A'' (2)
   61    42           1.5669387609          42.6385713863     A'        A'  (1)
   62   124           1.5888502769          43.2348140494     A''       A'' (2)
   63    43           1.6860573378          45.8799526536     A'        A'  (1)
   64    44           1.7086223839          46.4939787746     A'        A'  (1)
   65    45           1.8141234352          49.3648083300     A'        A'  (1)
   66    46           2.1400997288          58.2350742345     A'        A'  (1)
   67   125           2.1711571132          59.0801886298     A''       A'' (2)
   68    47           2.2351967694          60.8227962660     A'        A'  (1)
   69   126           2.2791469920          62.0187426237     A''       A'' (2)
   70    48           2.2925839478          62.3843807802     A'        A'  (1)
   71   127           2.3305438763          63.4173229486     A''       A'' (2)
   72    49           2.3332898947          63.4920459073     A'        A'  (1)
   73    50           2.3388839726          63.6442685055     A'        A'  (1)
   74    51           2.4329125714          66.2029167594     A'        A'  (1)
   75   128           2.4527198334          66.7418997585     A''       A'' (2)
   76    52           2.4617427434          66.9874256219     A'        A'  (1)
   77   129           2.4757099590          67.3674928814     A''       A'' (2)
   78    53           2.4839709623          67.5922862089     A'        A'  (1)
   79   130           2.4959683854          67.9187526903     A''       A'' (2)
   80    54           2.5305366602          68.8594032687     A'        A'  (1)
   81   131           2.7350015838          74.4231766960     A''       A'' (2)
   82    55           2.8090835481          76.4390494304     A'        A'  (1)
   83   132           2.8960599215          78.8057968733     A''       A'' (2)
   84    56           2.9455786224          80.1532692279     A'        A'  (1)
   85    57           2.9712552117          80.8519647456     A'        A'  (1)
   86   133           3.0524742125          83.0620461153     A''       A'' (2)
   87    58           3.0632500408          83.3552713099     A'        A'  (1)
   88    59           3.1252756144          85.0430729744     A'        A'  (1)
   89   134           3.1391941191          85.4218147418     A''       A'' (2)
   90    60           3.2676885299          88.9183254196     A'        A'  (1)
   91    61           3.3347346907          90.7427442068     A'        A'  (1)
   92   135           3.3730205370          91.7845550481     A''       A'' (2)
   93    62           3.4874568378          94.8985251037     A'        A'  (1)
   94    63           3.8262606220         104.1178447728     A'        A'  (1)
   95    64           3.8689455248         105.2793600303     A'        A'  (1)
   96   136           4.1791641096         113.7208368785     A''       A'' (2)
   97   137           4.2549507610         115.7830965069     A''       A'' (2)
   98   138           4.3770533847         119.1056778139     A''       A'' (2)
   99    65           4.4899218642         122.1769852837     A'        A'  (1)
  100    66           4.5740720663         124.4668286947     A'        A'  (1)
  101    67           4.7050781578         128.0316856799     A'        A'  (1)
  102    68           4.9720275464         135.2957478416     A'        A'  (1)
  103    69           5.4683055797         148.8001596777     A'        A'  (1)
  104   139           5.5618019959         151.3443265055     A''       A'' (2)
  105    70           5.7255871973         155.8011484165     A'        A'  (1)
  106    71           5.9764022750         162.6261736585     A'        A'  (1)
  107    72           6.2711005647         170.6453218053     A'        A'  (1)
  108   140           6.6743465219         181.6182021508     A''       A'' (2)
  109    73           6.6989043813         182.2864554785     A'        A'  (1)
  110   141           6.7428403331         183.4820135083     A''       A'' (2)
  111    74           6.8015109249         185.0785214772     A'        A'  (1)
  112   142           7.1078313688         193.4139245184     A''       A'' (2)
  113   143           7.2033822062         196.0139949889     A''       A'' (2)
  114    75           7.2156740820         196.3484739348     A'        A'  (1)
  115    76           7.5751554807         206.1304601011     A'        A'  (1)
  116   144           7.5907374506         206.5544670567     A''       A'' (2)
  117    77           7.6942246959         209.3704981650     A'        A'  (1)
  118    78           8.0967650062         220.3241768845     A'        A'  (1)
  119    79           9.2840884872         252.6328913456     A'        A'  (1)
  120    80          10.3459108904         281.5265478619     A'        A'  (1)
  121   145          10.3460063018         281.5291441375     A''       A'' (2)
  122   146          10.3838044152         282.5576830918     A''       A'' (2)
  123    81          10.4438566969         284.1917887534     A'        A'  (1)
  124    82          10.6284520293         289.2148831181     A'        A'  (1)
  125   147          12.6761062446         344.9343870417     A''       A'' (2)
  126    83          12.7318747312         346.4519247110     A'        A'  (1)
  127    84          13.2273346334         359.9340740707     A'        A'  (1)
  128    85          18.2774877297         497.3557262006     A'        A'  (1)
  129   148          26.3010438274         715.6877874082     A''       A'' (2)
  130    86          26.6778659365         725.9416382926     A'        A'  (1)
  131    87          27.2512150678         741.5432613248     A'        A'  (1)
  132    88          29.1918661875         794.3510629901     A'        A'  (1)
  133   149          36.8912427461        1003.8617504679     A''       A'' (2)
  134    89          36.8915001330        1003.8687543197     A'        A'  (1)
  135   150          36.8916403290        1003.8725692486     A''       A'' (2)
  136    90          36.8966292599        1004.0083249586     A'        A'  (1)
  137   151          36.9003695572        1004.1101036216     A''       A'' (2)
  138    91          36.9005452185        1004.1148836108     A'        A'  (1)
  139    92          36.9044478855        1004.2210805772     A'        A'  (1)
  140   152          43.9245621312        1195.2481008291     A''       A'' (2)
  141    93          43.9629605918        1196.2929760636     A'        A'  (1)
  142   153          43.9925964124        1197.0994077398     A''       A'' (2)
  143    94          44.1244893259        1200.6883963754     A'        A'  (1)
  144    95          44.5102942834        1211.1866829933     A'        A'  (1)
  145    96          46.4786843536        1264.7492998725     A'        A'  (1)
  146   154          46.4787532854        1264.7511756025     A''       A'' (2)
  147   155          46.5032292137        1265.4171994711     A''       A'' (2)
  148    97          46.5342298665        1266.2607701207     A'        A'  (1)
  149    98          46.6222641875        1268.6563057814     A'        A'  (1)
  150   156          55.0156133416        1497.0509476235     A''       A'' (2)
  151    99          55.0774117165        1498.7325668976     A'        A'  (1)
  152   100          55.6541116102        1514.4253688104     A'        A'  (1)
  153   101         103.8763319289        2826.6186943032     A'        A'  (1)
  154   157         138.4115080884        3766.3686135658     A''       A'' (2)
  155   102         138.6784628767        3773.6328226616     A'        A'  (1)
  156   103         139.1324428742        3785.9862464284     A'        A'  (1)
  157   104         150.0771795531        4083.8076724108     A'        A'  (1)


  VSCF finished.

 @CHECKOUT-I, Total execution time (CPU/WALL):       67.34/      13.23 seconds.
--executable xvscf finished with status     0 in       13.26 seconds (walltime).
 --invoking executable--
/home/asmola/.local/bin/xvtran
 @GETMEM-I,  Allocated    3814 MB of main memory.
  Full RHF integral transformation
  Transformation of IIII integrals :
  1 pass through the AO integral file was required.
    14247762 AO integrals were read.
    15933126 MO integrals were written to HF2.
  Transformation of IIJJ integrals :
  1 pass through the AO integral file was required.
     6955533 AO integrals were read.
     7813260 MO integrals were written to HF2.
  Transformation of IJIJ integrals :
  1 pass through the AO integral file was required.
    13490506 AO integrals were read.
    15193828 MO integrals were written to HF2.
  Summary of active molecular orbitals: 
------------------------------------------------------------------------
 
  Index      Eigenvalue    Symmetry    Index      Eigenvalue    Symmetry
------------------------------------------------------------------------
     1      -104.8950479        1        80         7.6942247        1
     2       -20.6296427        1        81         8.0967650        1
     3       -10.6148357        1        82         9.2840885        1
     4        -8.0815648        1        83        10.3459109        1
     5        -8.0791966        1        84        10.4438567        1
     6        -1.4447698        1        85        10.6284520        1
     7        -1.0774662        1        86        12.7318747        1
     8        -0.7511098        1        87        13.2273346        1
     9        -0.6103318        1        88        18.2774877        1
    10        -0.4726826        1        89        26.6778659        1
    11        -8.0790447        2        90        27.2512151        1
    12        -0.6186949        2        91        29.1918662        1
    13        -0.4468197        2        92        36.8915001        1
    14         0.0304929        1        93        36.8966293        1
    15         0.0615927        1        94        36.9005452        1
    16         0.1096340        1        95        36.9044479        1
    17         0.1402677        1        96        43.9629606        1
    18         0.1583324        1        97        44.1244893        1
    19         0.1716069        1        98        44.5102943        1
    20         0.1803946        1        99        46.4786844        1
    21         0.2504580        1       100        46.5342299        1
    22         0.3118724        1       101        46.6222642        1
    23         0.3191722        1       102        55.0774117        1
    24         0.3917666        1       103        55.6541116        1
    25         0.4404271        1       104       103.8763319        1
    26         0.4506672        1       105       138.6784629        1
    27         0.4997602        1       106       139.1324429        1
    28         0.6143690        1       107       150.0771796        1
    29         0.6766035        1       108         0.1153751        2
    30         0.7087962        1       109         0.1852619        2
    31         0.7181477        1       110         0.2639580        2
    32         0.7860014        1       111         0.3846835        2
    33         0.8698303        1       112         0.4183535        2
    34         0.8979286        1       113         0.6113989        2
    35         0.9152607        1       114         0.7159716        2
    36         0.9391092        1       115         0.7669959        2
    37         0.9593330        1       116         0.8814410        2
    38         1.0048139        1       117         0.9034576        2
    39         1.0587059        1       118         0.9226758        2
    40         1.1168632        1       119         1.0191787        2
    41         1.2370073        1       120         1.1177106        2
    42         1.2962997        1       121         1.2308582        2
    43         1.3528339        1       122         1.4223352        2
    44         1.3912238        1       123         1.5133081        2
    45         1.5669388        1       124         1.5888503        2
    46         1.6860573        1       125         2.1711571        2
    47         1.7086224        1       126         2.2791470        2
    48         1.8141234        1       127         2.3305439        2
    49         2.1400997        1       128         2.4527198        2
    50         2.2351968        1       129         2.4757100        2
    51         2.2925839        1       130         2.4959684        2
    52         2.3332899        1       131         2.7350016        2
    53         2.3388840        1       132         2.8960599        2
    54         2.4329126        1       133         3.0524742        2
    55         2.4617427        1       134         3.1391941        2
    56         2.4839710        1       135         3.3730205        2
    57         2.5305367        1       136         4.1791641        2
    58         2.8090835        1       137         4.2549508        2
    59         2.9455786        1       138         4.3770534        2
    60         2.9712552        1       139         5.5618020        2
    61         3.0632500        1       140         6.6743465        2
    62         3.1252756        1       141         6.7428403        2
    63         3.2676885        1       142         7.1078314        2
    64         3.3347347        1       143         7.2033822        2
    65         3.4874568        1       144         7.5907375        2
    66         3.8262606        1       145        10.3460063        2
    67         3.8689455        1       146        10.3838044        2
    68         4.4899219        1       147        12.6761062        2
    69         4.5740721        1       148        26.3010438        2
    70         4.7050782        1       149        36.8912427        2
    71         4.9720275        1       150        36.8916403        2
    72         5.4683056        1       151        36.9003696        2
    73         5.7255872        1       152        43.9245621        2
    74         5.9764023        1       153        43.9925964        2
    75         6.2711006        1       154        46.4787533        2
    76         6.6989044        1       155        46.5032292        2
    77         6.8015109        1       156        55.0156133        2
    78         7.2156741        1       157       138.4115081        2
    79         7.5751555        1
------------------------------------------------------------------------
  -104.895047878106       -20.6296427352153       -10.6148357199636     
  -8.08156477241805       -8.07919664236581       -1.44476982006428     
  -1.07746624429819      -0.751109808609449      -0.610331783177047     
 -0.472682585789340       -8.07904470748188      -0.618694879599858     
 -0.446819670001843       3.049287786740970E-002  6.159272115215086E-002
  0.109634036928734       0.140267694875298       0.158332422769828     
  0.171606918065924       0.180394575208956       0.250458015071100     
  0.311872365937306       0.319172168701794       0.391766581058150     
  0.440427106505150       0.450667240258063       0.499760239236026     
  0.614369003071118       0.676603471117948       0.708796244362266     
  0.718147699876543       0.786001389431933       0.869830303672213     
  0.897928556833104       0.915260707077901       0.939109217453526     
  0.959332966280401        1.00481391757905        1.05870594442094     
   1.11686323832705        1.23700726901533        1.29629974844889     
   1.35283391155049        1.39122381024081        1.56693876086724     
   1.68605733781243        1.70862238391602        1.81412343519300     
   2.14009972879533        2.23519676937724        2.29258394779687     
   2.33328989467455        2.33888397256185        2.43291257141348     
   2.46174274336516        2.48397096227485        2.53053666020952     
   2.80908354811547        2.94557862235969        2.97125521172961     
   3.06325004078771        3.12527561441136        3.26768852992430     
   3.33473469073157        3.48745683777731        3.82626062197229     
   3.86894552484771        4.48992186423474        4.57407206627685     
   4.70507815783767        4.97202754644259        5.46830557970425     
   5.72558719732479        5.97640227503048        6.27110056467248     
   6.69890438126282        6.80151092491577        7.21567408200128     
   7.57515548074373        7.69422469586633        8.09676500624038     
   9.28408848723323        10.3459108904362        10.4438566968788     
   10.6284520293117        12.7318747311817        13.2273346334411     
   18.2774877296628        26.6778659365243        27.2512150677662     
   29.1918661875208        36.8915001329819        36.8966292598924     
   36.9005452185421        36.9044478854819        43.9629605918374     
   44.1244893258685        44.5102942834315        46.4786843535665     
   46.5342298664865        46.6222641874717        55.0774117165090     
   55.6541116101573        103.876331928910        138.678462876739     
   139.132442874198        150.077179553127       0.115375068973468     
  0.185261928327962       0.263958033928205       0.384683478065812     
  0.418353546747399       0.611398946551991       0.715971636441872     
  0.766995907020259       0.881441006723567       0.903457567281850     
  0.922675768999527        1.01917873123859        1.11771063710237     
   1.23085816542971        1.42233523448085        1.51330805834379     
   1.58885027687998        2.17115711323283        2.27914699197833     
   2.33054387630335        2.45271983336571        2.47570995899616     
   2.49596838543308        2.73500158378717        2.89605992150058     
   3.05247421251269        3.13919411909620        3.37302053699018     
   4.17916410962570        4.25495076104569        4.37705338472222     
   5.56180199590660        6.67434652185963        6.74284033307606     
   7.10783136877925        7.20338220617438        7.59073745058977     
   10.3460063018139        10.3838044151706        12.6761062446287     
   26.3010438274213        36.8912427461482        36.8916403290481     
   36.9003695571629        43.9245621311958        43.9925964124204     
   46.4787532853793        46.5032292136659        55.0156133415653     
   138.411508088406     
 @CHECKOUT-I, Total execution time (CPU/WALL):       33.95/      19.14 seconds.
--executable xvtran finished with status     0 in       19.19 seconds (walltime).
 --invoking executable--
/home/asmola/.local/bin/xintprc
 @GETMEM-I,  Allocated    3814 MB of main memory.
  Processing integrals for CCSD calculation.
  @GMOIAA-I, Processing MO integrals for spin case AA.
  @GMOIAA-I, Generation of integral list completed.
                      TYPE                NUMBER
                      ----               --------
                      PPPP              27524020
                      PPPH               9932000
                      PPHH                900748
                      PHPH                491140
                      PHHH                 89950
                      HHHH                  2356

                     TOTAL              38940214

  @FORMT2-I, Second-order MP correlation energies:
            ------------------------------------------------
            E(SCF)                  =   -534.912909327566 a.u.
            E2(AA)                  =     -0.106734500367 a.u.
            E2(AB)                  =     -0.626271484036 a.u.
            E2(TOT)                 =     -0.839740484770 a.u.
            Total MP2 energy        =   -535.752649812336 a.u.
            ------------------------------------------------
   Largest T2 amplitudes for spin case AB:
       _       _                 _       _                 _       _
   i   j   a   b             i   j   a   b             i   j   a   b
-----------------------------------------------------------------------------
[  9   9  17  17]-0.02385 [  9   9  17  15]-0.02105 [  9   9  15  17]-0.02105
[  9   9  15  15]-0.02007 [ 13  13 112 112]-0.01782 [ 13  13 113 113]-0.01566
[ 10  10  25  25]-0.01550 [ 13  13 116 116]-0.01536 [  9   9  18  17] 0.01358
[  9   9  17  18] 0.01358 [  9   9  20  17] 0.01301 [  9   9  17  20] 0.01301
[ 13  13 117 117]-0.01297 [  9   9  20  15] 0.01278 [  9   9  15  20] 0.01278
-----------------------------------------------------------------------------
   Norm of T2AB vector (  1799624 symmetry allowed elements):  0.3195989855.
-----------------------------------------------------------------------------
 @CHECKOUT-I, Total execution time (CPU/WALL):        6.44/       9.90 seconds.
--executable xintprc finished with status     0 in       10.04 seconds (walltime).
  calling xvcc 
 --invoking executable--
/home/asmola/.local/bin/xvcc
 @GETMEM-I,  Allocated    3814 MB of main memory.
   CCSD energy will be calculated.
   The total correlation energy is -0.839740484770 a.u.
   The total correlation energy is -0.842887358820 a.u.
  Convergence information after     1 iterations: 
  Largest element of residual vector : -0.11672827E-01.
  Largest element of DIIS residual   : -0.11672827E-01.
   The total correlation energy is -0.855564587374 a.u.
  Convergence information after     2 iterations: 
  Largest element of residual vector : -0.29987552E-02.
  Largest element of DIIS residual   : -0.28317899E-02.
   The total correlation energy is -0.855629946828 a.u.
  Convergence information after     3 iterations: 
  Largest element of residual vector : -0.18632747E-02.
  Largest element of DIIS residual   : -0.10332521E-02.
   The total correlation energy is -0.856812432678 a.u.
  Convergence information after     4 iterations: 
  Largest element of residual vector : -0.25941205E-03.
  Largest element of DIIS residual   :  0.22274423E-03.
   The total correlation energy is -0.856919380713 a.u.
  Convergence information after     5 iterations: 
  Largest element of residual vector : -0.19347444E-03.
  Largest element of DIIS residual   : -0.12320980E-03.
   The total correlation energy is -0.856918341780 a.u.
  Convergence information after     6 iterations: 
  Largest element of residual vector : -0.71995733E-04.
  Largest element of DIIS residual   : -0.55443541E-04.
   The total correlation energy is -0.856918726833 a.u.
  Convergence information after     7 iterations: 
  Largest element of residual vector : -0.53440176E-04.
  Largest element of DIIS residual   : -0.39982964E-04.
   The total correlation energy is -0.856918365114 a.u.
  Convergence information after     8 iterations: 
  Largest element of residual vector : -0.26344568E-04.
  Largest element of DIIS residual   : -0.18119037E-04.
   The total correlation energy is -0.856918200456 a.u.
  Convergence information after     9 iterations: 
  Largest element of residual vector : -0.15622298E-04.
  Largest element of DIIS residual   : -0.95612486E-05.
   The total correlation energy is -0.856918826790 a.u.
  Convergence information after    10 iterations: 
  Largest element of residual vector : -0.79612341E-05.
  Largest element of DIIS residual   : -0.44585773E-05.
   The total correlation energy is -0.856919016675 a.u.
  Convergence information after    11 iterations: 
  Largest element of residual vector : -0.27473334E-05.
  Largest element of DIIS residual   : -0.15619462E-05.
   The total correlation energy is -0.856919129072 a.u.
  Convergence information after    12 iterations: 
  Largest element of residual vector : -0.15518772E-05.
  Largest element of DIIS residual   : -0.70210638E-06.
   The total correlation energy is -0.856919163067 a.u.
  Convergence information after    13 iterations: 
  Largest element of residual vector :  0.36322328E-06.
  Largest element of DIIS residual   : -0.35109365E-06.
   The total correlation energy is -0.856919163563 a.u.
  Convergence information after    14 iterations: 
  Largest element of residual vector : -0.24330735E-06.
  Largest element of DIIS residual   : -0.15341972E-06.
   The total correlation energy is -0.856919163680 a.u.
  Convergence information after    15 iterations: 
  Largest element of residual vector : -0.10356129E-06.
  Largest element of DIIS residual   : -0.87478356E-07.
   The total correlation energy is -0.856919163239 a.u.
  Convergence information after    16 iterations: 
  Largest element of residual vector : -0.71738446E-07.
  Largest element of DIIS residual   : -0.35445614E-07.
   The total correlation energy is -0.856919163944 a.u.
  Convergence information after    17 iterations: 
  Largest element of residual vector : -0.37087532E-07.
  Largest element of DIIS residual   : -0.26508566E-07.
   The total correlation energy is -0.856919164030 a.u.
  Convergence information after    18 iterations: 
  Largest element of residual vector : -0.18107839E-07.
  Largest element of DIIS residual   : -0.13219064E-07.
   The total correlation energy is -0.856919164180 a.u.
  Convergence information after    19 iterations: 
  Largest element of residual vector : -0.11606276E-07.
  Largest element of DIIS residual   : -0.65033449E-08.
   The total correlation energy is -0.856919164309 a.u.
  Convergence information after    20 iterations: 
  Largest element of residual vector : -0.37948240E-08.
  Largest element of DIIS residual   : -0.27345946E-08.
   The total correlation energy is -0.856919164325 a.u.
  Convergence information after    21 iterations: 
  Largest element of residual vector : -0.21544513E-08.
  Largest element of DIIS residual   : -0.13954127E-08.
   The total correlation energy is -0.856919164345 a.u.
  Convergence information after    22 iterations: 
  Largest element of residual vector : -0.96593407E-09.
  Largest element of DIIS residual   : -0.69286152E-09.
   The total correlation energy is -0.856919164341 a.u.
  Convergence information after    23 iterations: 
  Largest element of residual vector : -0.52382158E-09.
  Largest element of DIIS residual   : -0.30713646E-09.
   The total correlation energy is -0.856919164338 a.u.
  Convergence information after    24 iterations: 
  Largest element of residual vector : -0.26365303E-09.
  Largest element of DIIS residual   : -0.24705514E-09.
   The total correlation energy is -0.856919164338 a.u.
  Convergence information after    25 iterations: 
  Largest element of residual vector : -0.16601222E-09.
  Largest element of DIIS residual   : -0.14029086E-09.
   The total correlation energy is -0.856919164338 a.u.
  Convergence information after    26 iterations: 
  Largest element of residual vector : -0.11192246E-09.
  Largest element of DIIS residual   : -0.85607017E-10.
   The total correlation energy is -0.856919164339 a.u.
  Convergence information after    27 iterations: 
[...]
 final tnorm  0.849857612975861     
  norm contr. I: |<0|L dT/dx|0>|^2   0.000000000000000E+000
  norm contr. II: <0|[nabla(1+L)e-T][nabla e^T]|0>  0.493339831104623     
  total norm contribution  0.493339831104623     
 oo  2.113062848393061E-003
 vv  -1.57261514210739     
 vo -2.410712183430285E-002
  Correlated perturbed 1-el contribution to DBOC  -1.59460920109330       cm**-1
  SUM_I |dc_I/dx|^2 contribution to DBOC  0.803616187786239       cm**-1
 
 
  The total diagonal Born-Oppenheimer correction (DBOC) is:      0.0084212622 a.u.
  The total diagonal Born-Oppenheimer correction (DBOC) is:       1848.253422 cm-1
 
 Total CC energy including DBOC  -535.761407229683     
 First-order density matrix is being calculated  (Symmetry block 2, perturbation   3)
 Calculation of the contributions of <pq||rs> to dI(i,j)/dx required   2.0 seconds.
 Calculation of the contributions of <pq||rs> to dI(a,b)/dx required   9.1 seconds.
 Calculation of the contributions of <pq||rs> to dI(i,a)/dx required   5.9 seconds.
 First-order Z-vector equations are solved for 1 perturbation.
 Convergence reached after  22 iterations.
        U*G(pq,rs) contribution is being calculated
             (Symmetry block 2, perturbation   3)

 CCSD contribution to force constants 

        0.0000000000        0.0000000000        0.0000000000
        0.0000000000        0.0000000000        0.0000000000
        0.0000000000        0.0000000000        0.0000000000
        0.0000000000        0.0000000000        0.0000000000
        0.0000000000        0.0000000000        0.0000000000
        0.0000000000        0.0000000000        0.0000000000
        0.0000000000        0.0000000000        0.0000000000
        0.0000000000        0.0000000000        0.0000000000
        0.0000000000        0.0000000000        0.0000000000
        0.0000000000        0.0000000000        0.0000000000
        0.0000000000        0.0000000000        0.0000000000
        0.0000000000        0.0000000000        0.0000000000
        0.0000000000        0.0000000000        0.0000000000
        0.0000000000        0.0000000000        0.0000000000
        0.0000000000        0.0000000000        0.0000000000
        0.0000000000        0.0000000000        0.0000000000
        0.0000000000        0.0000000000        0.0000000000
        0.0000000000        0.0000000000        0.0000000000
        0.0000000000        0.0000000000        0.0000000000
        0.0000000000        0.0000000000        0.0000000000
        0.0000000000        0.0000000000        0.0000000000
        0.0000000000        0.0000000000        0.0000000000
        0.0000000000        0.0000000000        0.0000000000
        0.0000000000        0.0000000000        0.0000000000
        0.0000000000        0.0000000000        0.0000000000
        0.0000000000        0.0000000000        0.0000000000
       -0.0499007998        0.2189278541       -0.1690270543

 CCSD contribution to dipole derivatives 

        0.0000000000        0.0000000000        0.0000000000
        0.0000000000        0.0000000000        0.0000000000
        0.0000000000        0.0000000000        0.0000000000
        0.0000000000        0.0000000000        0.0000000000
        0.0000000000        0.0000000000        0.0000000000
        0.0000000000        0.0000000000        0.0000000000
        0.0000000000        0.0000000000        0.0000000000
        0.0000000000        0.0000000000        0.0000000000
        0.0000000000        0.0000000000        0.0115336529
 @CHECKOUT-I, Total execution time (CPU/WALL):      839.60/     164.81 seconds.
--executable xsdcc finished with status     0 in      164.96 seconds (walltime).
 --invoking executable--
/home/asmola/.local/bin/xanti
 @GETMEM-I,  Allocated    3814 MB of main memory.
 CCSD MO derivative gammas will be sorted to Mulliken order.
 @CHECKOUT-I, Total execution time (CPU/WALL):        6.62/      16.05 seconds.
--executable xanti finished with status     0 in       16.13 seconds (walltime).
 --invoking executable--
/home/asmola/.local/bin/xbcktrn
 @GETMEM-I,  Allocated    3814 MB of main memory.
 CCSD MO derivative gammas will be transformed to the AO basis.
 @CHECKOUT-I, Total execution time (CPU/WALL):       11.24/       1.48 seconds.
--executable xbcktrn finished with status     0 in        1.51 seconds (walltime).
 --invoking executable--
/home/asmola/.local/bin/xvdint
 @GETMEM-I,  Allocated    3814 MB of main memory.
 One- and two-electron integral derivatives are calculated
 for RHF-CC/MBPT hessians and dipole derivatives.
 Spherical gaussians are used.
  magnet F F
 Evaluation of 2el integral derivatives

                      Two-electron integral gradient
                      ------------------------------

                         O #1 x     0.0000000000
                         O #1 y     0.0000000000
                         H #2 x     0.0000000000
                         H #2 y     0.0000000000
                         CL#3 x     0.0000000000
                         CL#3 y     0.0000000000


 O #1       0.0000000000            0.0000000000           -0.0902918462
 H #2       0.0000000000            0.0000000000            0.0021275458
 CL#3       0.0000000000            0.0000000000            0.0881643004


 Evaluation of 2e integral derivatives required  107.13 seconds.
  contribution to Hessian
        0.0000000000        0.0000000000        0.0000000000
        0.0000000000        0.0000000000        0.0000000000
       -0.0902918462        0.0021275458        0.0881643004
 @CHECKOUT-I, Total execution time (CPU/WALL):      107.13/      19.72 seconds.
--executable xvdint finished with status     0 in       19.80 seconds (walltime).
 --invoking executable--
/home/asmola/.local/bin/xanti
 @GETMEM-I,  Allocated    3814 MB of main memory.
 CCSD MO gammas will be sorted to Mulliken order.
 @CHECKOUT-I, Total execution time (CPU/WALL):        7.40/       5.92 seconds.
--executable xanti finished with status     0 in        6.00 seconds (walltime).
 --invoking executable--
/home/asmola/.local/bin/xbcktrn
 @GETMEM-I,  Allocated    3814 MB of main memory.
 CCSD MO gammas will be transformed to the AO basis.
 @CHECKOUT-I, Total execution time (CPU/WALL):       18.84/      10.35 seconds.
--executable xbcktrn finished with status     0 in       10.39 seconds (walltime).
 --invoking executable--
/home/asmola/.local/bin/xvdint
 @GETMEM-I,  Allocated    3814 MB of main memory.
 One- and two-electron integral derivatives are calculated
 for RHF-CC/MBPT hessians and dipole derivatives.
 Spherical gaussians are used.
  magnet F F

                     Kinetic energy integral gradient
                     --------------------------------

                         O #1 x    -0.0610394450
                         O #1 y    -0.7737748354
                         H #2 x     0.4051805437
                         H #2 y     0.8003608712
                         CL#3 x    -0.3441410987
                         CL#3 y    -0.0265860358


 O #1      -0.0610394450           -0.7737748354            0.0000000000
 H #2       0.4051805437            0.8003608712            0.0000000000
 CL#3      -0.3441410987           -0.0265860358            0.0000000000



                   Nuclear attraction integral gradient
                   ------------------------------------

                         O #1 x   -22.9988923450
                         O #1 y     6.8421962281
                         H #2 x    -5.3092495628
                         H #2 y    -7.1511819296
                         CL#3 x    28.3081419078
                         CL#3 y     0.3089857014


 O #1     -22.9988923450            6.8421962281            0.0000000000
 H #2      -5.3092495628           -7.1511819296            0.0000000000
 CL#3      28.3081419078            0.3089857014            0.0000000000



                      Reorthonormalization gradient
                      -----------------------------

                         O #1 x     0.0000000000
                         O #1 y     0.0000000000
                         H #2 x     0.0000000000
                         H #2 y     0.0000000000
                         CL#3 x     0.0000000000
                         CL#3 y     0.0000000000


 O #1       0.0000000000            0.0000000000            0.0000000000
 H #2       0.0000000000            0.0000000000            0.0000000000
 CL#3       0.0000000000            0.0000000000            0.0000000000



                     Kinetic energy integral Hessian
                     -------------------------------


           Symmetry 1

           O #1 x      O #1 y      H #2 x      H #2 y      CL#3 x      CL#3 y

 O #1 x   -0.519277
 O #1 y    0.520595   -0.163177
 H #2 x    0.892062   -0.512697   -0.900753
 H #2 y   -0.512697   -0.051205    0.525292    0.053783
 CL#3 x   -0.372785   -0.007898    0.008692   -0.012594    0.364094
 CL#3 y   -0.007898    0.214381   -0.012594   -0.002579    0.020492   -0.211802


           Symmetry 2

           O #1 z      H #2 z      CL#3 z

 O #1 z   -1.424889
 H #2 z    1.220832   -1.226558
 CL#3 z    0.204057    0.005726   -0.209783




           O #1 x      O #1 y      O #1 z      H #2 x      H #2 y      H #2 z

 O #1 x   -0.519277
 O #1 y    0.520595   -0.163177
 O #1 z    0.000000    0.000000   -1.424889

 H #2 x    0.892062   -0.512697    0.000000   -0.900753
 H #2 y   -0.512697   -0.051205    0.000000    0.525292    0.053783
 H #2 z    0.000000    0.000000    1.220832    0.000000    0.000000   -1.226558

 CL#3 x   -0.372785   -0.007898    0.000000    0.008692   -0.012594    0.000000
 CL#3 y   -0.007898    0.214381    0.000000   -0.012594   -0.002579    0.000000
 CL#3 z    0.000000    0.000000    0.204057    0.000000    0.000000    0.005726


           CL#3 x      CL#3 y      CL#3 z

 CL#3 x    0.364094
 CL#3 y    0.020492   -0.211802
 CL#3 z    0.000000    0.000000   -0.209783




                   Nuclear attraction integral Hessian
                   -----------------------------------


           Symmetry 1

           O #1 x      O #1 y      H #2 x      H #2 y      CL#3 x      CL#3 y

 O #1 x   -6.160892
 O #1 y   -2.765465   12.067954
 H #2 x   -8.206736    3.522096    7.681229
 H #2 y    3.670660   -1.717887   -4.424740    1.674944
 CL#3 x   14.367628   -0.756630    0.525507    0.754080  -14.893135
 CL#3 y   -0.905195  -10.350068    0.902645    0.042942    0.002551   10.307125


           Symmetry 2

           O #1 z      H #2 z      CL#3 z

 O #1 z   20.228567
 H #2 z  -10.503380   11.012317
 CL#3 z   -9.725187   -0.508937   10.234125




           O #1 x      O #1 y      O #1 z      H #2 x      H #2 y      H #2 z

 O #1 x   -6.160892
 O #1 y   -2.765465   12.067954
 O #1 z    0.000000    0.000000   20.228567

 H #2 x   -8.206736    3.522096    0.000000    7.681229
 H #2 y    3.670660   -1.717887    0.000000   -4.424740    1.674944
 H #2 z    0.000000    0.000000  -10.503380    0.000000    0.000000   11.012317

 CL#3 x   14.367628   -0.756630    0.000000    0.525507    0.754080    0.000000
 CL#3 y   -0.905195  -10.350068    0.000000    0.902645    0.042942    0.000000
 CL#3 z    0.000000    0.000000   -9.725187    0.000000    0.000000   -0.508937


           CL#3 x      CL#3 y      CL#3 z

 CL#3 x  -14.893135
 CL#3 y    0.002551   10.307125
 CL#3 z    0.000000    0.000000   10.234125




                Highest order reorthonormalization Hessian
                ------------------------------------------


           Symmetry 1

           O #1 x      O #1 y      H #2 x      H #2 y      CL#3 x      CL#3 y

 O #1 x    0.000000
 O #1 y    0.000000    0.000000
 H #2 x    0.000000    0.000000    0.000000
 H #2 y    0.000000    0.000000    0.000000    0.000000
 CL#3 x    0.000000    0.000000    0.000000    0.000000    0.000000
 CL#3 y    0.000000    0.000000    0.000000    0.000000    0.000000    0.000000


           Symmetry 2

           O #1 z      H #2 z      CL#3 z

 O #1 z    0.000000
 H #2 z    0.000000    0.000000
 CL#3 z    0.000000    0.000000    0.000000




           O #1 x      O #1 y      O #1 z      H #2 x      H #2 y      H #2 z


           CL#3 x      CL#3 y      CL#3 z




                Electronic contributions to dipole moment
                -----------------------------------------

                               au             Debye

                    x      2.73159007      6.94301063
                    y      0.15956439      0.40557230

  Conversion factor used: 1 a.u. =   2.54174691 Debye 



   Electronic contributions to static part of dipole moment derivatives
   --------------------------------------------------------------------


                     Total dipole moment derivatives
                     -------------------------------


           Symmetry 1
                              Ex             Ey

               O #1 x    -8.73146615    -0.07895212
               O #1 y    -0.13126829    -8.63931465
               H #2 x    -0.47311551     0.12049739
               H #2 y     0.19233463    -0.49979541
               CL#3 x   -16.79541833    -0.04154527
               CL#3 y    -0.06106634   -16.86088994

           Symmetry 2
                              Ez

               O #1 z    -8.26372248
               H #2 z    -0.86153063
               CL#3 z   -16.87474689



                       Ex          Ey          Ez

      O #1    x   -8.731466   -0.078952    0.000000
      O #1    y   -0.131268   -8.639315    0.000000
      O #1    z    0.000000    0.000000   -8.263722

      H #2    x   -0.473116    0.120497    0.000000
      H #2    y    0.192335   -0.499795    0.000000
      H #2    z    0.000000    0.000000   -0.861531

      CL#3    x  -16.795418   -0.041545    0.000000
      CL#3    y   -0.061066  -16.860890    0.000000
      CL#3    z    0.000000    0.000000  -16.874747

 Evaluation of 1e integral derivatives required    1.61 seconds.
 Evaluation of 2el integral derivatives

                      Two-electron integral gradient
                      ------------------------------

                         O #1 x    10.5486816534
                         O #1 y    -2.5958232816
                         H #2 x     2.7948512774
                         H #2 y     2.9424070952
                         CL#3 x   -13.3435329308
                         CL#3 y    -0.3465838136


 O #1      10.5486816534           -2.5958232816            0.0000000000
 H #2       2.7948512774            2.9424070952            0.0000000000
 CL#3     -13.3435329308           -0.3465838136            0.0000000000


 Evaluation of 2e integral derivatives required  276.63 seconds.

                            Molecular gradient
                            ------------------

                         O #1 x    -0.0826579861
                         O #1 y     0.0748794117
                         H #2 x    -0.0873924651
                         H #2 y    -0.0907965740
                         CL#3 x     0.1700504513
                         CL#3 y     0.0159171623


 O #1      -0.0826579861            0.0748794117            0.0000000000
 H #2      -0.0873924651           -0.0907965740            0.0000000000
 CL#3       0.1700504513            0.0159171623            0.0000000000


  Molecular gradient norm 0.240E+00

                            Molecular hessian
                            -----------------


           Symmetry 1

           O #1 x      O #1 y      H #2 x      H #2 y      CL#3 x      CL#3 y

 O #1 x    4.384196
 O #1 y    2.775016    8.224001
 H #2 x   -2.513768   -5.332662    2.218209
 H #2 y   -2.905756   -7.965737    3.207995    7.268895
 CL#3 x   -1.870427    0.479645   -0.344124   -0.396749    2.214550
 CL#3 y    0.130740   -0.258264   -0.296026    0.077080    0.165285    0.181184


           Symmetry 2

           O #1 z      H #2 z      CL#3 z

 O #1 z   -5.479494
 H #2 z    5.711520   -6.105558
 CL#3 z   -0.232026    0.215527    0.016499




           O #1 x      O #1 y      O #1 z      H #2 x      H #2 y      H #2 z

 O #1 x    4.384196
 O #1 y    2.775016    8.224001
 O #1 z    0.000000    0.000000   -5.479494

 H #2 x   -2.513768   -5.332662    0.000000    2.218209
 H #2 y   -2.905756   -7.965737    0.000000    3.207995    7.268895
 H #2 z    0.000000    0.000000    5.711520    0.000000    0.000000   -6.105558

 CL#3 x   -1.870427    0.479645    0.000000   -0.344124   -0.396749    0.000000
 CL#3 y    0.130740   -0.258264    0.000000   -0.296026    0.077080    0.000000
 CL#3 z    0.000000    0.000000   -0.232026    0.000000    0.000000    0.215527


           CL#3 x      CL#3 y      CL#3 z

 CL#3 x    2.214550
 CL#3 y    0.165285    0.181184
 CL#3 z    0.000000    0.000000    0.016499




                           Total dipole moment
                           -------------------

                               au             Debye

                    x     -0.10782502     -0.27406391
                    y     -0.53276513     -1.35415413

  Conversion factor used: 1 a.u. =   2.54174691 Debye 



                     Total dipole moment derivatives
                     -------------------------------


           Symmetry 1
                              Ex             Ey

               O #1 x    -0.50333939    -0.04388663
               O #1 y    -0.22490226    -0.19900677
               H #2 x     0.24746354     0.02763146
               H #2 y     0.15786882     0.21275498
               CL#3 x     0.25587639     0.01625504
               CL#3 y     0.06703359    -0.01374825

           Symmetry 2
                              Ez

               O #1 z    -0.37029541
               H #2 z     0.34798837
               CL#3 z     0.02230705



                       Ex          Ey          Ez

      O #1    x   -0.503339   -0.043887    0.000000
      O #1    y   -0.224902   -0.199007    0.000000
      O #1    z    0.000000    0.000000   -0.370295

      H #2    x    0.247464    0.027631    0.000000
      H #2    y    0.157869    0.212755    0.000000
      H #2    z    0.000000    0.000000    0.347988

      CL#3    x    0.255876    0.016255    0.000000
      CL#3    y    0.067034   -0.013748    0.000000
      CL#3    z    0.000000    0.000000    0.022307

  Molecular gradient does not satisfy rotational invariance condition.
   rotational invariance in yz-plane :        0.0000E+00
   rotational invariance in xz-plane :        0.0000E+00
   rotational invariance in xy-plane :        0.1597E-01
 @CHECKOUT-I, Total execution time (CPU/WALL):      278.25/      40.11 seconds.
--executable xvdint finished with status     0 in       40.18 seconds (walltime).
 --invoking executable--
/home/asmola/.local/bin/xjoda
  @GTFLGS-I, Hessian will be transformed to curvilinear coordinates.
  @GTFLGS-I, Hessian will be transformed to curvilinear coordinates.
  igrd and ihes are                      0                     1
  gradient from JOBARC 
  -0.082657986135078   0.074879411668137   0.000000000000000
  -0.087392465118011  -0.090796573987943   0.000000000000000
   0.170050451253127   0.015917162319796   0.000000000000000
 
  @PROJFCM-I, Projecting force constant matrix onto totally symmetric subspace.
  Largest difference between matrix elements of symmetrized
  and unsymmetrized FCM :     0.0000000000E+00.
  read isotopes from ZMAT file 
 
  Summary of diagonal Born-Oppenheimer correction at the correlated level
  The total diagonal Born-Oppenheimer correction (DBOC) is:      0.0084212622 a.u.
  The total diagonal Born-Oppenheimer correction (DBOC) is:       1848.253422 cm-1
  The total diagonal Born-Oppenheimer correction (DBOC) is:            22.110 kJ/mole
  hellooooooo 
  readis is  F
 
 @CHECKOUT-I, Total execution time (CPU/WALL):        0.30/       0.33 seconds.
--executable xjoda finished with status     0 in        0.45 seconds (walltime).
  The final electronic energy is      -535.761407229683073 a.u. 
  This computation required                         2350.00 seconds (walltime).
