 --invoking executable--
/home/asmola/.local/bin/xjoda


   *************************************************************************
         <<<     CCCCCC     CCCCCC   |||     CCCCCC     CCCCCC   >>>
       <<<      CCC        CCC       |||    CCC        CCC         >>>
      <<<      CCC        CCC        |||   CCC        CCC            >>>
    <<<        CCC        CCC        |||   CCC        CCC              >>>
      <<<      CCC        CCC        |||   CCC        CCC            >>>
       <<<      CCC        CCC       |||    CCC        CCC         >>>
         <<<     CCCCCC     CCCCCC   |||     CCCCCC     CCCCCC   >>>
   *************************************************************************

     ****************************************************************
     * CFOUR Coupled-Cluster techniques for Computational Chemistry *
     ****************************************************************
 

   Department of Chemistry                Institut fuer Physikalische Chemie
   University of Florida                  Universitaet Mainz
   Gainesville, FL 32611, USA             D-55099 Mainz, Germany

   Department of Chemistry                Fakultaet fuer Chemie und Biowiss.
   Johns Hopkins University               Karlsruher Institut fuer Technologie
   Baltimore, MD 21218, USA               D-76131 Karlsruhe, Germany

   Department of Chemistry                Department of Physical Chemistry
   Southern Methodist University          Eotvos Lorand University
   Dallas, TX 75275, USA                  H-1053 Budapest, Hungary

 
                       Version 2.1
 
                     vincent.theory.phys.ucl.ac.uk                     
                     Thu 30 Jan 22:20:21 GMT 2025                      
                     integer*8 version is running
 
********************************************************************************
*                          Input from ZMAT file                                *
********************************************************************************
Hypochlorous acid DBOC calculation                                              
O                                                                               
H 1 ROH                                                                         
CL 1 ROCL 2 A                                                                   
                                                                                
ROH=1.7000000000000008                                                          
ROCL=1.683                                                                      
A=107.0                                                                         
                                                                                
                                                                                
*CFOUR(CALC=CCSD,BASIS=AUG-PCVTZ,SCF_CONV=10                                    
CC_CONV=10,DBOC=ON,MEMORY=500000000)                                            
                                                                                
%isotopes                                                                       
16                                                                              
1                                                                               
37                                                                              
********************************************************************************
  @GTFLGS-I, Hessian will be transformed to curvilinear coordinates.
    -------------------------------------------------------------------
                    CFOUR Control Parameters 
    -------------------------------------------------------------------
        External           Internal           Value            Units
          Name               Name
    -------------------------------------------------------------------
       ABCDTYPE             IABCDT         STANDARD    [  0]    ***   
       ANHARMONIC           IANHAR         OFF         [  0]    ***   
       ANH_ALGORIT          IANALG         STANDARD    [  0]    ***   
       ANH_DERIVAT          IANDER         SECOND      [  1]    ***   
       ANH_MODE             ANHMOD         VIBRATION   [  0]    ***   
       ANH_STEPSIZ          ICUBST             50000          x 10-6  
       ANH_SYMMETR          IANHSM         ABELIAN     [  0]    ***   
       AO_LADDERS           IAOLAD         SINGLEPASS  [  1]    ***   
       AV_SCF               IAVSCF         OFF         [  0]    ***   
       BASIS                IBASIS         AUG-PCVTZ   [ 51]    ***   
       BOTHVECTORS          BOTHVC         OFF         [  0]    ***   
       BOX_POTENT           IPIAB          OFF         [  0]    ***   
       BREIT                IBREIT         OFF         [  0]    ***   
       BRUCK_CONV           IBRTOL          10D-  4             ***   
       BRUECKNER            IBRKNR         OFF         [  0]    ***   
       BUFFERSIZE           IBUFFS              4096            ***   
       CACHE_RECS           ICHREC             10               ***   
       CALCLEVEL            ICLLVL         CCSD        [ 10]    ***   
       CCORBOPT             ICCORB         OFF         [  0]  x 0.01  
       CC_CONV              ICCCNV          10D- 10             ***   
       CC_EXPORDER          ICCEOR              5               ***   
       CC_EXTRAPOL          ICCEXT         DIIS        [  1]    ***   
       CC_GUESS             ICCGES         MP2         [  0]    ***   
       CC_MAXCYC            ICCCYC            100              cycles 
       CC_PROGRAM           ICCPRO         VCC         [  0]    ***   
       CHARGE               ICHRGE              0               ***   
       CHOLESKY             ICHOLE         OFF         [  0]    ***   
       CIS_CONV             ICISTL              5               ***   
       COMM_SIZE            IPSIZE            ***               ***   
       CONSTANT             ICONST         OLD         [  1]    ***   
       CONTINUUM            ICONTU         NONE        [  0]    ***   
       CONTRACTION          ICNTYP         GENERAL     [  1]    ***   
       COORDINATES          ICOORD         INTERNAL    [  0]    ***   
       CPHF_CONVER          ICPHFT          10D- 16             ***   
       CPHF_MAXCYC          ICPHFC             64              cycles 
       CUBIC                ICUBIC         OFF         [  0]    ***   
       CURVILINEAR          ICURVY         ON          [  1]    ***   
       DBOC                 IDBOC          ON          [  1]    ***   
       DCT                  IDCT           OFF         [  0]    ***   
       DERIV_LEV            IDRLVL         SECOND      [  2]    ***   
       DEVMEM_SIZE          IDVMEM          50000000           MByte  
       DIAG_MRCC            IEOMST          10D-  0             ***   
       DIFF_TYPE            IDIFTY         RELAXED     [  0]    ***   
       DIRECT               IDIRCT         OFF         [  0]    ***   
       DROPMO               IDRPMO      NONE         
       ECP                  IECP           OFF         [  0]    ***   
       EIGENVECTOR          IVEC                1               ***   
       EL_ANHARM            IELANH         OFF         [  0]    ***   
       EOMFOLLOW            IEOMSR         ENERGY      [  0]    ***   
       EOMIP                IEOMIP         OFF         [  0]    ***   
       EOMLEVEL             HBARFM         SAME        [  0]    ***   
       EOM_MRCC             IMRCCE         NEW         [  1]    ***   
       EOM_NONIT            EOMNON         OFF         [  0]    ***   
       EOM_NSING            IEOMSI          10D-  0             ***   
       EOM_NSTATES          IMRCCD         DAVIDSON    [  0]    ***   
       EOM_NTRIP            IEOMTR          10D-  0             ***   
       EOM_ORDER            IEXORD         ENERGY      [  0]    ***   
       EOM_PROPSTA          IEOMST              0               ***   
       ESTATE_CONV          IEXTOL          10D-  5             ***   
       ESTATE_DIAG          IEXDIG         ITERATIVE   [  0]    ***   
       ESTATE_LOCK          IESLOC         ON          [  1]    ***   
       ESTATE_MAXC          IEXMXC             40               ***   
       ESTATE_PROP          IEXPRP         OFF         [  0]    ***   
       EVAL_HESS            IRECAL              0            # of cyc.
       EXCITATION           IEXCIT              0               ***   
       EXCITE               IEXCIT         NONE        [  0]    ***   
       EXTERN_POT           IEXPOT         OFF         [  0]    ***   
       FCGRADNEW            IFCGNW         OFF         [  0]    ***   
       FC_FIELD             IFINFC              0             x 10-6  
       FD_CALTYPE           IFDCAL         GRADONLY    [  0]    ***   
       FD_PROJECT           IFDPRJ         OFF         [  1]    ***   
       FD_STEPSIZE          IDISFD              0            10-4 bohr
       FD_USEGROUP          IFDGRP         FULL        [  0]    ***   
       FILE_RECSIZ          IFLREC              4096           words  
       FINITE_PERT          IFIPER              0             x 10-6  
       FIXGEOM              IFIXGM         OFF         [  0]    ***   
       FOCK                 IFOCK          AO          [  1]    ***   
       FREQ_ALGORI          IVIALG         STANDARD    [  0]    ***   
       FROZEN_CORE          IFROCO         OFF         [  0]    ***   
       GAMMA_ABCD           IGABCD         STORE       [  0]    ***   
       GAMMA_ABCI           IGABCI         STORE       [  0]    ***   
       GENBAS_1             IGNBS1              0               ***   
       GENBAS_2             IGNBS2              0               ***   
       GENBAS_3             IGNBS3              0               ***   
       GENBAS_4             IGNBS4              0               ***   
       GEO_CONV             ICONTL              5              H/bohr 
       GEO_MAXCYC           IOPTCY             50               ***   
       GEO_MAXSTEP          IMXSTP            300            millibohr
       GEO_METHOD           INR            SINGLE_POINT[  5]    ***   
       GIAO                 IGIAO          OFF         [  1]    ***   
       GIMIC                IGIMIC         OFF         [  0]    ***   
       GRID                 IGRID          OFF         [  0]    ***   
       GRID_ALGO            IGALGO         SERIAL      [  0]    ***   
       GUESS                IGUESS         MOREAD      [  0]    ***   
       HBAR                 IHBAR          OFF         [  0]    ***   
       HESS_TYPE            IHESTP         SCF         [  0]    ***   
       HF2_FILE             IHF2Fl         USE         [  1]    ***   
       HFSTABILITY          ISTABL         OFF         [  0]    ***   
       INCORE               INCORE         OFF         [  0]    ***   
       INPUT_MRCC           IMRCC          ON          [  1]    ***   
       INTEGRALS            INTTYP         VMOL        [  1]    ***   
       JODA_PRINT           IJPRNT              0               ***   
       KEYWORD_OUT          IDMPKW         NO          [  0]    ***   
       LINDEP_TOL           ILINDP              8               ***   
       LINEQ_CONV           IZTACN          10D-  7           cycles  
       LINEQ_EXPOR          ILMAXD              5               ***   
       LINEQ_MAXCY          ILMAXC            100               ***   
       LINEQ_TYPE           ILTYPE         DIIS        [  1]    ***   
       LOCK_ORBOCC          ILOCOC         OFF         [  0]    ***   
       MEMORY_SIZE          IMEMSZ         500000000           words  
       MEM_UNIT             IMEMU          INTEGERWORDS[  0]    ***   
       MRCC                 IMRCCC         OFF         [  0]    ***   
       MULTIPLICTY          IMULTP              1               ***   
       NACOUPLING           IVCOUP         OFF         [  0]    ***   
       NEGEVAL              IDIE           ABORT       [  0]    ***   
       NEWNORM              INEWNO         OFF         [  0]    ***   
       NON-HF               INONHF         OFF         [  0]    ***   
       NTOP_TAMP            ITOPT2             15               ***   
       NUC_MODEL            INUCMO         POINT       [  0]    ***   
       OCCUPATION           IOCCU   ESTIMATED BY SCF 
       OPEN-SHELL           IOPEN          SPIN-ORBITAL[  0]    ***   
       OPTVIB               IOPTVB         OFF         [  0]    ***   
       ORBITALS             IORBTP         STANDARD    [  0]    ***   
       PARALLEL             IPARAL         ON          [  1]    ***   
       PARA_INT             IPINTS         ON          [  1]    ***   
       PARA_PRINT           IPPRIN              0               ***   
       PERT_ORB             IPTORB         STANDARD    [  0]    ***   
       POINTS               IGRDFD              0               ***   
       PRINT                IPRNT               0               ***   
       PROPS                IPROPS         OFF         [  0]    ***   
       PROP_INTEGR          IINTYP         INTERNAL    [  0]    ***   
       PSI                  IPSI           OFF         [  0]    ***   
       QC_ALG               IQCALG         FLM         [  0]    ***   
       QC_LINALG            IQCLIN         TRIDIAG     [  2]    ***   
       QC_MAXCYC            IQCMAX          10D-100           cycles  
       QC_MAXSCFCY          IQCMSC          10D- 15           cycles  
       QC_RTRUST            IQCRTR          10D-  0           x 10-3  
       QC_SKIPSCF           IQCSKI         OFF         [  0]    ***   
       QC_START             IQCSTA          10D-  1             ***   
       QRHFGUESS            IQGUES         OFF         [  0]    ***   
       QUARTIC              IQUART         OFF         [  0]    ***   
       RAMAN_INT            IRAMIN         OFF         [  0]    ***   
       RAMAN_ORB            IRAMRE         UNRELAXED   [  0]    ***   
       RDO                  IRDOFM         ON          [  1]    ***   
       REDUCE_REPR          REDREP         Ir          [  0]    ***   
       REFERENCE            IREFNC         RHF         [  0]    ***   
       RELATIVIST           IRELAT         OFF         [  0]    ***   
       RELAX_DENS           IRDENS         ON          [  1]    ***   
       RESET_FLAGS          IRESET         OFF         [  0]    ***   
       RESTART_CC           ICCRES         OFF         [  0]    ***   
       ROT_EVEC             ROTVEC              0               ***   
       SAVE_INTS            ISVINT         OFF         [  0]    ***   
       SCALE_ON             ISTCRT              0               ***   
       SCF_CONV             ISCFCV          10D- 10             ***   
       SCF_DAMPING          IDAMP               0             x 10-3  
       SCF_EXPORDE          IRPPOR              6               ***   
       SCF_EXPSTAR          IRPPLS              8               ***   
       SCF_EXTRAPO          IRPP           ON          [  1]    ***   
       SCF_MAXCYC           ISCFCY            150              cycles 
       SCF_NOSTOP           ISCFST         OFF         [  0]    ***   
       SCF_PRINT            ISCFPR              0               ***   
       SCF_PROG             ISCFPR         SCF         [  0]    ***   
       SD_FIELD             IFINSD              0             x 10-6  
       SOPERT               IPERSO         OFF         [  0]    ***   
       SPHERICAL            IDFGHI         ON          [  1]    ***   
       SPINORBIT            ISOCAL         OFF         [  0]    ***   
       SPINROTATIO          ISRCON         OFF         [  0]    ***   
       SPIN_FLIP            ISPFLP         OFF         [  0]    ***   
       SPIN_ORBIT           ISPORB         OFF         [  0]    ***   
       SPIN_SCAL            ISCSMP         OFF         [  0]    ***   
       STEEPSCALE           ISTPSC              1000          x 10-3  
       SUBGROUP             ISUBGP         DEFAULT     [  0]    ***   
       SUBGRPAXIS           ISBXYZ         X           [  0]    ***   
       SYMMETRY             ISYM           ON          [  0]    ***   
       SYM_CHECK            ISYMCK         OVERRIDE    [  1]    ***   
       T3_EXTRAPOL          IT3EXT         OFF         [  0]    ***   
       T4_EXTRAPOL          IT4EXP         OFF         [  0]    ***   
       TAMP_SUM             IEVERY              5               ***   
       TESTSUITE            ITESTS         OFF         [  0]    ***   
       THERMOCH             ITHERM         OFF         [  0]    ***   
       TOL_CHOLESK          ITOLCH          10D-  4             ***   
       TRANGRAD             IRESRM         OFF         [  0]    ***   
       TRANS_INV            ITRAIN         IGNORE      [  1]    ***   
       TREAT_PERT           ITREAT         SIMULTANEOUS[  0]    ***   
       TRIP_ALGORI          ITRALG         NORMAL      [  0]    ***   
       UIJ_THRESHO          IUIJTH              1               ***   
       UNITS                IUNITS         ANGSTROM    [  0]    ***   
       UNOS                 IUNOS          OFF         [  0]    ***   
       UPDATE_HESS          IHUPDT         ON          [  1]    ***   
       VIBPHASE             ISETPH         STANDARD    [  0]    ***   
       VIBRATION            IVIB           ANALYTIC    [  1]    ***   
       VIB_ALGORIT          IGEALG         STANDARD    [  0]    ***   
       VNATORB              IVNORB         OFF         [  0]    ***   
       VTRAN                IVTRAN         FULL/PARTIAL[  0]    ***   
       XFIELD               IXEFLD              0             x 10-6  
       XFORM_TOL            IXFTOL          10D- 11             ***   
       YFIELD               IYEFLD              0             x 10-6  
       ZFIELD               IZEFLD              0             x 10-6  
       ZSCALE_EXP           IZEXPS         OFF         [  0]    ***   
    -------------------------------------------------------------------
   3 entries found in Z-matrix 
   Job Title : Hypochlorous acid DBOC calculation                                              
   There are  3 unique internal coordinates.
   Of these,  0 will be optimized.
   User supplied Z-matrix: 
--------------------------------------------------------------------------------
       SYMBOL    BOND      LENGTH    ANGLE     ANGLE     DIHED     ANGLE
                  TO      (ANGST)    WRT      (DEG)      WRT      (DEG)
--------------------------------------------------------------------------------
        O    
        H          1         ROH  
        CL         1         ROCL       2        A    
                  *Initial values for internal coordinates* 
                      Name             Value
                        ROH             1.7000000000
                        ROCL            1.6830000000
                        A             107.0000000000
--------------------------------------------------------------------------------
  read isotopes from ZMAT file 
   Rotational constants (in cm-1): 
          0.4556063042             0.4870413321             7.0589758218
   Rotational constants (in MHz): 
      13658.7352963390         14601.1338539853        211622.8009050530
********************************************************************************
   The full molecular point group is C s .
   The largest Abelian subgroup of the full molecular point group is C s .
   The computational point group is C s .
********************************************************************************
--------------------------------------------------------------------------------
   Analysis of internal coordinates specified by Z-matrix 
--------------------------------------------------------------------------------
   *The nuclear repulsion energy is   48.560036668828339 a.u.
   *There are   3 degrees of freedom within the tot. symm. molecular subspace.
   *Z-matrix requests optimization of   0 coordinates.
   *The optimization is constrained.
   *The following   3 parameters can have non-zero 
    derivatives within the totally symmetric subspace:
             A    [ 3]  ROH  [ 1]  ROCL [ 2]
   *The following   0 parameters are to be optimized:

   *The following coordinates must be varied in an  unconstrained optimization.
             A    [ 3]  ROH  [ 1]  ROCL [ 2]
--------------------------------------------------------------------------------


 ----------------------------------------------------------------
         Coordinates used in calculation (QCOMP) 
 ----------------------------------------------------------------
 Z-matrix   Atomic            Coordinates (in bohr)
  Symbol    Number           X              Y              Z
 ----------------------------------------------------------------
     O         8        -2.14850061     0.23804857     0.00000000
     H         1        -3.34161758    -2.74471082     0.00000000
     CL       17         1.02074742    -0.02817132     0.00000000
 ----------------------------------------------------------------
 
   Interatomic distance matrix (Angstroms) 
 
                 O             H             CL   
                [ 1]        [ 2]        [ 3]
  O    [ 1]     0.00000
  H    [ 2]     1.70000     0.00000
  CL   [ 3]     1.68300     2.71947     0.00000
 rotcon2
   Rotational constants (in cm-1): 
          7.0589758218             0.4870413321             0.4556063042
   Rotational constants (in MHz): 
     211622.8009050532         14601.1338539853         13658.7352963390
  ECPDATA file not present.   Using default ECPDATA. 
  @GTFLGS-I, Hessian will be transformed to curvilinear coordinates.
  There are  157 basis functions.
 @CHECKOUT-I, Total execution time (CPU/WALL):        0.19/       0.25 seconds.
--executable xjoda finished with status     0 in        0.29 seconds (walltime).
 --invoking executable--
/home/asmola/.local/bin/xvmol
 SERIAL VERSION OF MOLECULE STARTED
********************************************************************************
                    INPUT FROM MOL FILE
********************************************************************************
INTGRL        1    0    1    0    0    0    0    0    0                         
         *** CFOUR Program System (Release V0.1) ***                            
Hypochlorous acid DBOC calculation                                              
    3    1 Z          0.10E-08              0    0                              
   9999.00      3.00                                                            
          8.00000000    1    4    1    1    1    1                              
O #1  -2.148500607490430   0.238048572187258   0.000000000000000                
   13    7                                                                      
   15330.0000000000       5.080000000000000E-004 -1.150000000000000E-004        
  0.000000000000000E+000  0.000000000000000E+000  0.000000000000000E+000        
  0.000000000000000E+000  0.000000000000000E+000                                
   2299.00000000000       3.929000000000000E-003 -8.950000000000000E-004        
  0.000000000000000E+000  0.000000000000000E+000  0.000000000000000E+000        
  0.000000000000000E+000  0.000000000000000E+000                                
   522.400000000000       2.024300000000000E-002 -4.636000000000000E-003        
  0.000000000000000E+000  0.000000000000000E+000  0.000000000000000E+000        
  0.000000000000000E+000  0.000000000000000E+000                                
   147.300000000000       7.918100000000000E-002 -1.872400000000000E-002        
  0.000000000000000E+000  0.000000000000000E+000  0.000000000000000E+000        
  0.000000000000000E+000  0.000000000000000E+000                                
   47.5500000000000       0.230687000000000      -5.846300000000000E-002        
  0.000000000000000E+000  0.000000000000000E+000  0.000000000000000E+000        
  0.000000000000000E+000  0.000000000000000E+000                                
   16.7600000000000       0.433118000000000      -0.136463000000000             
  0.000000000000000E+000  0.000000000000000E+000  0.000000000000000E+000        
  0.000000000000000E+000  0.000000000000000E+000                                
   6.20700000000000       0.350260000000000      -0.175740000000000             
  0.000000000000000E+000  0.000000000000000E+000  0.000000000000000E+000        
  0.000000000000000E+000  0.000000000000000E+000                                
   1.75200000000000       4.272800000000000E-002  0.160934000000000             
   1.00000000000000       0.000000000000000E+000  0.000000000000000E+000        
  0.000000000000000E+000  0.000000000000000E+000                                
  0.688200000000000      -8.154000000000000E-003  0.603418000000000             
  0.000000000000000E+000  0.000000000000000E+000  0.000000000000000E+000        
  0.000000000000000E+000  0.000000000000000E+000                                
  0.238400000000000       2.381000000000000E-003  0.378765000000000             
  0.000000000000000E+000   1.00000000000000       0.000000000000000E+000        
  0.000000000000000E+000  0.000000000000000E+000                                
   7.84500000000000       0.000000000000000E+000  0.000000000000000E+000        
  0.000000000000000E+000  0.000000000000000E+000   1.00000000000000             
  0.000000000000000E+000  0.000000000000000E+000                                
   21.0320000000000       0.000000000000000E+000  0.000000000000000E+000        
  0.000000000000000E+000  0.000000000000000E+000  0.000000000000000E+000        
   1.00000000000000       0.000000000000000E+000                                
  7.376000000000001E-002  0.000000000000000E+000  0.000000000000000E+000        
  0.000000000000000E+000  0.000000000000000E+000  0.000000000000000E+000        
  0.000000000000000E+000   1.00000000000000                                     
    8    6                                                                      
   34.4600000000000       1.592800000000000E-002  0.000000000000000E+000        
  0.000000000000000E+000  0.000000000000000E+000  0.000000000000000E+000        
  0.000000000000000E+000                                                        
   7.74900000000000       9.974000000000000E-002  0.000000000000000E+000        
  0.000000000000000E+000  0.000000000000000E+000  0.000000000000000E+000        
  0.000000000000000E+000                                                        
   2.28000000000000       0.310492000000000       0.000000000000000E+000        
  0.000000000000000E+000  0.000000000000000E+000  0.000000000000000E+000        
  0.000000000000000E+000                                                        
  0.715600000000000       0.491026000000000        1.00000000000000             
  0.000000000000000E+000  0.000000000000000E+000  0.000000000000000E+000        
  0.000000000000000E+000                                                        
  0.214000000000000       0.336337000000000       0.000000000000000E+000        
   1.00000000000000       0.000000000000000E+000  0.000000000000000E+000        
  0.000000000000000E+000                                                        
   15.1590000000000       0.000000000000000E+000  0.000000000000000E+000        
  0.000000000000000E+000   1.00000000000000       0.000000000000000E+000        
  0.000000000000000E+000                                                        
   57.4370000000000       0.000000000000000E+000  0.000000000000000E+000        
  0.000000000000000E+000  0.000000000000000E+000   1.00000000000000             
  0.000000000000000E+000                                                        
  5.974000000000000E-002  0.000000000000000E+000  0.000000000000000E+000        
  0.000000000000000E+000  0.000000000000000E+000  0.000000000000000E+000        
   1.00000000000000                                                             
    4    4                                                                      
   2.31400000000000        1.00000000000000       0.000000000000000E+000        
  0.000000000000000E+000  0.000000000000000E+000                                
  0.645000000000000       0.000000000000000E+000   1.00000000000000             
  0.000000000000000E+000  0.000000000000000E+000                                
   15.8580000000000       0.000000000000000E+000  0.000000000000000E+000        
   1.00000000000000       0.000000000000000E+000                                
  0.214000000000000       0.000000000000000E+000  0.000000000000000E+000        
  0.000000000000000E+000   1.00000000000000                                     
    2    2                                                                      
   1.42800000000000        1.00000000000000       0.000000000000000E+000        
  0.500000000000000       0.000000000000000E+000   1.00000000000000             
          1.00000000    1    3    1    1    1                                   
H #2  -3.341617575171210  -2.744710817145993   0.000000000000000                
    6    4                                                                      
   33.8700000000000       6.068000000000000E-003  0.000000000000000E+000        
  0.000000000000000E+000  0.000000000000000E+000                                
   5.09500000000000       4.530800000000000E-002  0.000000000000000E+000        
  0.000000000000000E+000  0.000000000000000E+000                                
   1.15900000000000       0.202822000000000       0.000000000000000E+000        
  0.000000000000000E+000  0.000000000000000E+000                                
  0.325800000000000       0.503903000000000        1.00000000000000             
  0.000000000000000E+000  0.000000000000000E+000                                
  0.102700000000000       0.383421000000000       0.000000000000000E+000        
   1.00000000000000       0.000000000000000E+000                                
  2.526000000000000E-002  0.000000000000000E+000  0.000000000000000E+000        
  0.000000000000000E+000   1.00000000000000                                     
    3    3                                                                      
   1.40700000000000        1.00000000000000       0.000000000000000E+000        
  0.000000000000000E+000                                                        
  0.388000000000000       0.000000000000000E+000   1.00000000000000             
  0.000000000000000E+000                                                        
  0.102000000000000       0.000000000000000E+000  0.000000000000000E+000        
   1.00000000000000                                                             
    2    2                                                                      
   1.05700000000000        1.00000000000000       0.000000000000000E+000        
  0.247000000000000       0.000000000000000E+000   1.00000000000000             
         17.00000000    1    4    1    1    1    1                              
CL#3   1.020747417879935  -0.028171321157193   0.000000000000000                
   18    8                                                                      
   456100.000000000       4.930000000000000E-005 -1.380000000000000E-005        
  4.200000000000000E-006  0.000000000000000E+000  0.000000000000000E+000        
  0.000000000000000E+000  0.000000000000000E+000  0.000000000000000E+000        
   68330.0000000000       3.830000000000000E-004 -1.073000000000000E-004        
  3.240000000000000E-005  0.000000000000000E+000  0.000000000000000E+000        
  0.000000000000000E+000  0.000000000000000E+000  0.000000000000000E+000        
   15550.0000000000       2.008500000000000E-003 -5.651000000000000E-004        
  1.711000000000000E-004  0.000000000000000E+000  0.000000000000000E+000        
  0.000000000000000E+000  0.000000000000000E+000  0.000000000000000E+000        
   4405.00000000000       8.385600000000000E-003 -2.361400000000000E-003        
  7.142000000000000E-004  0.000000000000000E+000  0.000000000000000E+000        
  0.000000000000000E+000  0.000000000000000E+000  0.000000000000000E+000        
   1439.00000000000       2.947030000000000E-002 -8.458900000000000E-003        
  2.567000000000000E-003  0.000000000000000E+000  0.000000000000000E+000        
  0.000000000000000E+000  0.000000000000000E+000  0.000000000000000E+000        
   520.400000000000       8.783249999999999E-002 -2.596380000000000E-002        
  7.885500000000000E-003  0.000000000000000E+000  0.000000000000000E+000        
  0.000000000000000E+000  0.000000000000000E+000  0.000000000000000E+000        
   203.100000000000       0.211473000000000      -6.863619999999999E-002        
  2.108670000000000E-002  0.000000000000000E+000  0.000000000000000E+000        
  0.000000000000000E+000  0.000000000000000E+000  0.000000000000000E+000        
   83.9600000000000       0.365364000000000      -0.141874000000000             
  4.422640000000000E-002  0.000000000000000E+000  0.000000000000000E+000        
  0.000000000000000E+000  0.000000000000000E+000  0.000000000000000E+000        
   36.2000000000000       0.340884000000000      -0.199319000000000             
  6.516700000000000E-002  0.000000000000000E+000  0.000000000000000E+000        
  0.000000000000000E+000  0.000000000000000E+000  0.000000000000000E+000        
   15.8300000000000       0.102133000000000      -1.956620000000000E-002        
  6.030100000000000E-003  0.000000000000000E+000  0.000000000000000E+000        
  0.000000000000000E+000  0.000000000000000E+000  0.000000000000000E+000        
   6.33400000000000       3.116800000000000E-003  0.499741000000000             
 -0.206495000000000       0.000000000000000E+000  0.000000000000000E+000        
  0.000000000000000E+000  0.000000000000000E+000  0.000000000000000E+000        
   2.69400000000000       1.057500000000000E-003  0.563736000000000             
 -0.405871000000000       0.000000000000000E+000  0.000000000000000E+000        
  0.000000000000000E+000  0.000000000000000E+000  0.000000000000000E+000        
  0.976800000000000      -3.780000000000000E-004  7.903250000000001E-002        
  7.595580000000000E-002   1.00000000000000       0.000000000000000E+000        
  0.000000000000000E+000  0.000000000000000E+000  0.000000000000000E+000        
  0.431300000000000       1.561000000000000E-004 -8.350900000000000E-003        
  0.725661000000000       0.000000000000000E+000  0.000000000000000E+000        
  0.000000000000000E+000  0.000000000000000E+000  0.000000000000000E+000        
  0.162500000000000      -5.140000000000000E-005  2.324600000000000E-003        
  0.394423000000000       0.000000000000000E+000   1.00000000000000             
  0.000000000000000E+000  0.000000000000000E+000  0.000000000000000E+000        
   15.0640000000000       0.000000000000000E+000  0.000000000000000E+000        
  0.000000000000000E+000  0.000000000000000E+000  0.000000000000000E+000        
   1.00000000000000       0.000000000000000E+000  0.000000000000000E+000        
   2.87400000000000       0.000000000000000E+000  0.000000000000000E+000        
  0.000000000000000E+000  0.000000000000000E+000  0.000000000000000E+000        
  0.000000000000000E+000   1.00000000000000       0.000000000000000E+000        
  5.910000000000000E-002  0.000000000000000E+000  0.000000000000000E+000        
  0.000000000000000E+000  0.000000000000000E+000  0.000000000000000E+000        
  0.000000000000000E+000  0.000000000000000E+000   1.00000000000000             
   12    7                                                                      
   663.300000000000       2.404500000000000E-003 -6.521000000000000E-004        
  0.000000000000000E+000  0.000000000000000E+000  0.000000000000000E+000        
  0.000000000000000E+000  0.000000000000000E+000                                
   156.800000000000       1.921480000000000E-002 -5.194500000000000E-003        
  0.000000000000000E+000  0.000000000000000E+000  0.000000000000000E+000        
  0.000000000000000E+000  0.000000000000000E+000                                
   49.9800000000000       8.850970000000000E-002 -2.469380000000000E-002        
  0.000000000000000E+000  0.000000000000000E+000  0.000000000000000E+000        
  0.000000000000000E+000  0.000000000000000E+000                                
   18.4200000000000       0.256020000000000      -7.281670000000000E-002        
  0.000000000000000E+000  0.000000000000000E+000  0.000000000000000E+000        
  0.000000000000000E+000  0.000000000000000E+000                                
   7.24000000000000       0.436927000000000      -0.134030000000000             
  0.000000000000000E+000  0.000000000000000E+000  0.000000000000000E+000        
  0.000000000000000E+000  0.000000000000000E+000                                
   2.92200000000000       0.350334000000000      -9.477420000000000E-002        
  0.000000000000000E+000  0.000000000000000E+000  0.000000000000000E+000        
  0.000000000000000E+000  0.000000000000000E+000                                
   1.02200000000000       5.854950000000000E-002  0.262289000000000             
   1.00000000000000       0.000000000000000E+000  0.000000000000000E+000        
  0.000000000000000E+000  0.000000000000000E+000                                
  0.381800000000000      -4.584200000000000E-003  0.564667000000000             
  0.000000000000000E+000  0.000000000000000E+000  0.000000000000000E+000        
  0.000000000000000E+000  0.000000000000000E+000                                
  0.130100000000000       2.269700000000000E-003  0.341250000000000             
  0.000000000000000E+000   1.00000000000000       0.000000000000000E+000        
  0.000000000000000E+000  0.000000000000000E+000                                
   9.48000000000000       0.000000000000000E+000  0.000000000000000E+000        
  0.000000000000000E+000  0.000000000000000E+000   1.00000000000000             
  0.000000000000000E+000  0.000000000000000E+000                                
   3.66800000000000       0.000000000000000E+000  0.000000000000000E+000        
  0.000000000000000E+000  0.000000000000000E+000  0.000000000000000E+000        
   1.00000000000000       0.000000000000000E+000                                
  4.190000000000000E-002  0.000000000000000E+000  0.000000000000000E+000        
  0.000000000000000E+000  0.000000000000000E+000  0.000000000000000E+000        
  0.000000000000000E+000   1.00000000000000                                     
    5    5                                                                      
   1.04600000000000        1.00000000000000       0.000000000000000E+000        
  0.000000000000000E+000  0.000000000000000E+000  0.000000000000000E+000        
  0.344000000000000       0.000000000000000E+000   1.00000000000000             
  0.000000000000000E+000  0.000000000000000E+000  0.000000000000000E+000        
   17.9570000000000       0.000000000000000E+000  0.000000000000000E+000        
   1.00000000000000       0.000000000000000E+000  0.000000000000000E+000        
   5.76000000000000       0.000000000000000E+000  0.000000000000000E+000        
  0.000000000000000E+000   1.00000000000000       0.000000000000000E+000        
  0.135000000000000       0.000000000000000E+000  0.000000000000000E+000        
  0.000000000000000E+000  0.000000000000000E+000   1.00000000000000             
    3    3                                                                      
  0.706000000000000        1.00000000000000       0.000000000000000E+000        
  0.000000000000000E+000                                                        
   11.7790000000000       0.000000000000000E+000   1.00000000000000             
  0.000000000000000E+000                                                        
  0.312000000000000       0.000000000000000E+000  0.000000000000000E+000        
   1.00000000000000                                                             
FINISH                                                                          
 
********************************************************************************
 ONE- AND TWO-ELECTRON INTEGRALS OVER SYMMETRY-ADAPTED AOS ARE CALCULATED.

  SPHERICAL HARMONICS ARE USED.
  
  INTEGRALS LESS THAN  0.10E-13 ARE NEGLECTED.

  NUCLEAR REPULSION ENERGY :   48.5600366688 A.U.
  @MOLECU-I, ONE ELECTRON INTEGRALS (CPU/WALL):        0.04/       0.05 SECONDS.
  @TWOEL-I,   14102637 INTEGRALS OF SYMMETRY TYPE  I I I I
  @TWOEL-I,   13264973 INTEGRALS OF SYMMETRY TYPE  I J I J
  @TWOEL-I,    6866871 INTEGRALS OF SYMMETRY TYPE  I I J J
  @TWOEL-I, TOTAL NUMBER OF 2-E INTEGRALS   34234481.
  @MOLECU-I, TWO ELECTRON INTEGRALS (CPU/WALL):       54.51/       8.52 SECONDS.
 @CHECKOUT-I, Total execution time (CPU/WALL):       54.57/       8.59 seconds.

Running with 14 threads/proc

--executable xvmol finished with status     0 in        8.74 seconds (walltime).
 --invoking executable--
/home/asmola/.local/bin/xvmol2ja
 @GETMEM-I,  Allocated    3814 MB of main memory.
 @CHECKOUT-I, Total execution time (CPU/WALL):        0.18/       0.05 seconds.
--executable xvmol2ja finished with status     0 in        0.08 seconds (walltime).
 --invoking executable--
/home/asmola/.local/bin/xvscf
  There are  157 functions in the AO basis.

  There are 2 irreducible representations.

       Irrep        # of functions
         1                104
         2                 53


  Parameters for SCF calculation: 
        SCF reference function:  RHF  
  Maximum number of iterations:  150
     Full symmetry point group: C s 
     Computational point group: C s 
        Initial density matrix: MOREAD                 
     SCF convergence tolerance: 10**(-10)
  DIIS convergence acceleration:  ON
          Latest start for DIIS:   8
                     DIIS order:   6

  Memory information:    1209746 words required.
  Fock matrices are constructed from AO integral file.
 @GETMEM-I,  Allocated       9 MB of main memory.
  Initialization and symmetry analysis required      0.002 seconds.

  @INITGES-I, Occupancies from core Hamiltonian:

          Alpha population by irrep:  10    3
           Beta population by irrep:  10    3


 total no. of electrons in initial guess :  0.000000000000000E+000
  --------------------------------------------------------------------
  Iteration         Total Energy            Largest Density Difference
  --------------------------------------------------------------------
       0            48.560036668828339              0.0000000000D+00
   current occupation vector 
    10  3
    10  3
       1          -366.416717705631356              0.1325410384D+02
   current occupation vector 
    10  3
    10  3
       2          -343.384003302321958              0.1321861736D+02
   current occupation vector 
    10  3
    10  3
       3          -422.380320904676296              0.1067882572D+02
   current occupation vector 
    10  3
    10  3
       4          -340.551632311922333              0.1068804987D+02
   current occupation vector 
    10  3
    10  3
       5          -422.141185586527399              0.1063134182D+02
   current occupation vector 
    10  3
    10  3
       6          -340.460830061728529              0.1063159993D+02
   current occupation vector 
    10  3
    10  3
       7          -422.133053689134158              0.1062961162D+02
   current occupation vector 
    10  3
    10  3
       8          -340.458011356456325              0.1062961928D+02
   current occupation vector 
    10  3
    10  3
       9          -445.108542762719821              0.8445851254D+01
   current occupation vector 
    10  3
    10  3
      10          -462.608303642537123              0.1920628977D+01
   current occupation vector 
    10  3
    10  3
      11          -465.696504515134905              0.3504935304D+00
   current occupation vector 
    10  3
    10  3
      12          -466.298522796848204              0.9946197580D-01
   current occupation vector 
    10  3
    10  3
      13          -480.350472827621218              0.1776462574D+01
   current occupation vector 
    10  3
    10  3
      14          -482.329740683099487              0.3226698470D+00
   current occupation vector 
    10  3
    10  3
      15          -508.792823373736894              0.7380928672D+01
   current occupation vector 
    10  3
    10  3
      16          -521.223004465920781              0.7380511526D+01
   current occupation vector 
    11  2
    11  2
      17          -527.743620245660281              0.3902665348D+01
   current occupation vector 
    11  2
    11  2
      18          -532.229007871614613              0.1788143903D+01
   current occupation vector 
    11  2
    11  2
      19          -534.526398484723131              0.2266037131D+01
   current occupation vector 
    10  3
    10  3
      20          -534.683402742279213              0.7463041260D+00
   current occupation vector 
    10  3
    10  3
      21          -534.748712845392333              0.2411597757D+00
   current occupation vector 
    10  3
    10  3
      22          -534.757029328281192              0.1081393682D+00
   current occupation vector 
    10  3
    10  3
      23          -534.758305382810704              0.4870781741D-01
   current occupation vector 
    10  3
    10  3
      24          -534.758482363124358              0.2180311707D-01
   current occupation vector 
    10  3
    10  3
      25          -534.758514326253589              0.8871159493D-02
   current occupation vector 
    10  3
    10  3
      26          -534.758517349639078              0.2545706584D-02
   current occupation vector 
    10  3
    10  3
      27          -534.758517598608591              0.5983988143D-03
   current occupation vector 
    10  3
    10  3
      28          -534.758517627460037              0.2265481953D-03
   current occupation vector 
    10  3
    10  3
      29          -534.758517630674305              0.6538688267D-04
   current occupation vector 
    10  3
    10  3
      30          -534.758517631535597              0.4287649645D-04
   current occupation vector 
    10  3
    10  3
      31          -534.758517631679752              0.1594497901D-04
   current occupation vector 
    10  3
    10  3
      32          -534.758517631699078              0.8501034490D-05
   current occupation vector 
    10  3
    10  3
      33          -534.758517631691802              0.1045406585D-05
   current occupation vector 
    10  3
    10  3
      34          -534.758517631699078              0.5862236836D-06
   current occupation vector 
    10  3
    10  3
      35          -534.758517631693167              0.1605729405D-06
   current occupation vector 
    10  3
    10  3
      36          -534.758517631692939              0.6490324630D-07
   current occupation vector 
    10  3
    10  3
      37          -534.758517631695440              0.2580896886D-07
   current occupation vector 
    10  3
    10  3
      38          -534.758517631694190              0.1990136658D-07
   current occupation vector 
    10  3
    10  3
      39          -534.758517631691234              0.4409117162D-08
   current occupation vector 
    10  3
    10  3
      40          -534.758517631692939              0.3387863268D-08
   current occupation vector 
    10  3
    10  3
      41          -534.758517631694531              0.6795496874D-09
   current occupation vector 
    10  3
    10  3
      42          -534.758517631692939              0.2591340129D-09
   current occupation vector 
    10  3
    10  3
      43          -534.758517631693053              0.1322359999D-09
   current occupation vector 
    10  3
    10  3

  SCF has converged.

 Density matrix saved to file den.dat
 total electron number:   26.0000000000002     
     E(SCF)=      -534.758517631695213              0.9461435801D-10

  Eigenvector printing suppressed.

 @PUTMOS-I, Writing converged MOs to NEWMOS. 
 @PUTMOS-I, Symmetry   1 Full Blocks 26 Partial Blocksize   0
 @PUTMOS-I, Symmetry   2 Full Blocks 13 Partial Blocksize   1
 @PUTFOCK-I, Writing converged Fock matrix to NEWFOCK. 
 @PUTFOCK-I, Symmetry   1 Full Blocks 26 Partial Blocksize   0
 @PUTFOCK-I, Symmetry   2 Full Blocks 13 Partial Blocksize   1


 
  ORBITAL EIGENVALUES (ALPHA)  (1H = 27.2113834 eV)

       MO #        E(hartree)               E(eV)           FULLSYM    COMPSYM
       ----   --------------------   --------------------   -------   ---------
    1     1        -104.8835133946       -2854.0254953206     A'        A'  (1)
    2     2         -20.6695132138        -562.4460487521     A'        A'  (1)
    3     3         -10.6032516004        -288.5291445843     A'        A'  (1)
    4     4          -8.0698900352        -219.5928717447     A'        A'  (1)
    5     5          -8.0677711713        -219.5352145255     A'        A'  (1)
    6   105          -8.0675608804        -219.5294922194     A''       A'' (2)
    7     6          -1.3507692781         -36.7563007104     A'        A'  (1)
    8     7          -1.0266725830         -27.9371812827     A'        A'  (1)
    9   106          -0.6021786897         -16.3861152003     A''       A'' (2)
   10     8          -0.5963417252         -16.2272833222     A'        A'  (1)
   11     9          -0.5737992399         -15.6138711117     A'        A'  (1)
   12   107          -0.4337767263         -11.8036648087     A''       A'' (2)
   13    10          -0.4241899779         -11.5427961220     A'        A'  (1)
  +++++++++++++++++++++++++++++++++++++++++++++++++++++++++++++++++++++++++++++
   14    11          -0.0343116062          -0.9336662721     A'        A'  (1)
   15    12           0.0535637938           1.4575449284     A'        A'  (1)
   16    13           0.0824803662           2.2444048668     A'        A'  (1)
   17   108           0.1178384494           3.2065472256     A''       A'' (2)
   18    14           0.1182263835           3.2171034493     A'        A'  (1)
   19    15           0.1490322593           4.0553739468     A'        A'  (1)
   20    16           0.1640565374           4.4642053389     A'        A'  (1)
   21    17           0.1763895696           4.7998042075     A'        A'  (1)
   22   109           0.1916003012           5.2137092547     A''       A'' (2)
   23    18           0.2223107879           6.0493840842     A'        A'  (1)
   24   110           0.2456490003           6.6844491300     A''       A'' (2)
   25    19           0.2783010492           7.5729565502     A'        A'  (1)
   26    20           0.3098265411           8.4308087966     A'        A'  (1)
   27    21           0.3381820798           9.2024022323     A'        A'  (1)
   28   111           0.3718657728          10.1189821183     A''       A'' (2)
   29    22           0.3869134922          10.5284513786     A'        A'  (1)
   30   112           0.4257621359          11.5855767161     A''       A'' (2)
   31    23           0.4587171320          12.4823277497     A'        A'  (1)
   32    24           0.5091261222          13.8540261108     A'        A'  (1)
   33    25           0.5897902902          16.0490097126     A'        A'  (1)
   34   113           0.6184302802          16.8283434615     A''       A'' (2)
   35    26           0.6443434136          17.5334756694     A'        A'  (1)
   36    27           0.6705616631          18.2469105076     A'        A'  (1)
   37   114           0.7426057111          20.2073287190     A''       A'' (2)
   38    28           0.7525702629          20.4784779587     A'        A'  (1)
   39    29           0.7657692350          20.8376402497     A'        A'  (1)
   40   115           0.7767295581          21.1358858029     A''       A'' (2)
   41    30           0.7983007059          21.7228665780     A'        A'  (1)
   42   116           0.8256503155          22.4670872899     A''       A'' (2)
   43    31           0.8270184930          22.5043172917     A'        A'  (1)
   44   117           0.8867986619          24.1310183880     A''       A'' (2)
   45    32           0.9021794311          24.5495503951     A'        A'  (1)
   46   118           0.9404117742          25.5899053410     A''       A'' (2)
   47    33           0.9576984889          26.0603007629     A'        A'  (1)
   48   119           0.9613675806          26.1601418228     A''       A'' (2)
   49    34           0.9831858420          26.7538468997     A'        A'  (1)
   50    35           1.0109050862          27.5081258809     A'        A'  (1)
   51    36           1.0331240648          28.1127350266     A'        A'  (1)
   52    37           1.0569181291          28.7602044345     A'        A'  (1)
   53   120           1.0935827956          29.7579007315     A''       A'' (2)
   54    38           1.1063181466          30.1044472498     A'        A'  (1)
   55   121           1.1653990025          31.7121190716     A''       A'' (2)
   56    39           1.2053510828          32.7992704463     A'        A'  (1)
   57    40           1.2137764582          33.0285365654     A'        A'  (1)
   58   122           1.2901178385          35.1058911341     A''       A'' (2)
   59    41           1.3328620525          36.2690203293     A'        A'  (1)
   60   123           1.3635972525          37.1053676400     A''       A'' (2)
   61    42           1.5080906468          41.0372327915     A'        A'  (1)
   62    43           1.5187111869          41.3262323794     A'        A'  (1)
   63   124           1.5238919021          41.4672068090     A''       A'' (2)
   64    44           1.6232941224          44.1720787365     A'        A'  (1)
   65    45           1.7258520889          46.9628228830     A'        A'  (1)
   66    46           1.8280163209          49.7428529688     A'        A'  (1)
   67   125           2.1482869549          58.4578599834     A''       A'' (2)
   68    47           2.1953401073          59.7382413529     A'        A'  (1)
   69   126           2.2215481774          60.4513991967     A''       A'' (2)
   70    48           2.2625905481          61.5682188821     A'        A'  (1)
   71   127           2.3063772995          62.7597169620     A''       A'' (2)
   72    49           2.3130211183          62.9405044627     A'        A'  (1)
   73    50           2.3181177723          63.0791914684     A'        A'  (1)
   74    51           2.3680662766          64.4383593695     A'        A'  (1)
   75   128           2.3890601491          65.0096316818     A''       A'' (2)
   76    52           2.4031663279          65.3934803212     A'        A'  (1)
   77   129           2.4414789177          66.4360188922     A''       A'' (2)
   78   130           2.4797390218          67.4771292539     A''       A'' (2)
   79    53           2.4968792397          67.9435382949     A'        A'  (1)
   80    54           2.5120146732          68.3553943786     A'        A'  (1)
   81   131           2.5196203362          68.5623549920     A''       A'' (2)
   82    55           2.6193703391          71.2766905652     A'        A'  (1)
   83    56           2.8963125710          78.8126718144     A'        A'  (1)
   84   132           2.9029922340          78.9944346871     A''       A'' (2)
   85    57           2.9691547916          80.7948094086     A'        A'  (1)
   86    58           3.0523214400          83.0578889634     A'        A'  (1)
   87   133           3.0622021878          83.3267577815     A''       A'' (2)
   88   134           3.1013930449          84.3931952199     A''       A'' (2)
   89    59           3.1115151068          84.6686305256     A'        A'  (1)
   90    60           3.1329425069          85.2516997263     A'        A'  (1)
   91    61           3.2092241134          87.3274277673     A'        A'  (1)
   92   135           3.3664828752          91.6066562257     A''       A'' (2)
   93    62           3.3726048332          91.7732431727     A'        A'  (1)
   94    63           3.3989357831          92.4897447452     A'        A'  (1)
   95    64           3.8074806515         103.6068157969     A'        A'  (1)
   96   136           3.8097075647         103.6674131861     A''       A'' (2)
   97    65           3.8451254419         104.6311826212     A'        A'  (1)
   98   137           3.9485710912         107.4460818442     A''       A'' (2)
   99    66           4.0613544849         110.5150740107     A'        A'  (1)
  100   138           4.0782009968         110.9734909075     A''       A'' (2)
  101    67           4.1758841128         113.6315836264     A'        A'  (1)
  102   139           4.1971127063         114.2092430235     A''       A'' (2)
  103    68           4.2725249598         116.2613147669     A'        A'  (1)
  104    69           4.4428209093         120.8953031397     A'        A'  (1)
  105    70           4.7948502785         130.4745092736     A'        A'  (1)
  106    71           5.1218242967         139.3719246461     A'        A'  (1)
  107    72           5.8938444313         160.3796605203     A'        A'  (1)
  108   140           6.5699416063         178.7771999644     A''       A'' (2)
  109    73           6.6162579455         180.0375316290     A'        A'  (1)
  110   141           6.6609452809         181.2535358446     A''       A'' (2)
  111    74           6.6804091985         181.7831759695     A'        A'  (1)
  112   142           6.7715381668         184.2629212642     A''       A'' (2)
  113    75           6.8690870349         186.9173609135     A'        A'  (1)
  114    76           6.9340540270         188.6852026442     A'        A'  (1)
  115   143           7.0562432610         192.0101407385     A''       A'' (2)
  116    77           7.1291056879         193.9928281714     A'        A'  (1)
  117   144           7.1662988195         195.0049047371     A''       A'' (2)
  118    78           7.4525178677         202.7933209943     A'        A'  (1)
  119    79           7.6426381894         207.9667579595     A'        A'  (1)
  120   145          10.3545922412         281.7627794267     A''       A'' (2)
  121    80          10.3593239848         281.8915367152     A'        A'  (1)
  122   146          10.3930109772         282.8082063803     A''       A'' (2)
  123    81          10.4323117700         283.8776353213     A'        A'  (1)
  124    82          10.5961179687         288.3350285976     A'        A'  (1)
  125   147          12.6838611748         345.1454094194     A''       A'' (2)
  126    83          12.7258721786         346.2885869513     A'        A'  (1)
  127    84          13.1893973396         358.9017478217     A'        A'  (1)
  128    85          18.2489403071         496.5789113408     A'        A'  (1)
  129   148          26.0490788139         708.8314708224     A''       A'' (2)
  130    86          26.1595700132         711.8380892096     A'        A'  (1)
  131    87          26.5712997103         723.0418238521     A'        A'  (1)
  132    88          28.7448581798         782.1873567084     A'        A'  (1)
  133   149          36.9017831823        1004.1485703170     A''       A'' (2)
  134    89          36.9030254311        1004.1823736266     A'        A'  (1)
  135   150          36.9034401033        1004.1936574310     A''       A'' (2)
  136    90          36.9047879104        1004.2303331256     A'        A'  (1)
  137   151          36.9110646322        1004.4011314092     A''       A'' (2)
  138    91          36.9111722452        1004.4040597070     A'        A'  (1)
  139    92          36.9158469635        1004.5312652596     A'        A'  (1)
  140   152          43.8596589764        1193.4819962008     A''       A'' (2)
  141    93          43.8729248774        1193.8429797181     A'        A'  (1)
  142   153          43.8959552690        1194.4696685353     A''       A'' (2)
  143    94          43.9344022313        1195.5158635669     A'        A'  (1)
  144    95          44.0474821551        1198.5929247265     A'        A'  (1)
  145   154          46.4887487476        1265.0231659571     A''       A'' (2)
  146    96          46.4913798017        1265.0947605796     A'        A'  (1)
  147   155          46.5135724299        1265.6986526928     A''       A'' (2)
  148    97          46.5343200433        1266.2632239575     A'        A'  (1)
  149    98          46.6178199495        1268.5353719177     A'        A'  (1)
  150   156          55.0229289042        1497.2500142025     A''       A'' (2)
  151    99          55.0700400878        1498.5319746836     A'        A'  (1)
  152   100          55.6136984136        1513.3256698257     A'        A'  (1)
  153   101         103.7908091568        2824.2915013633     A'        A'  (1)
  154   157         138.2104622026        3760.8978768859     A''       A'' (2)
  155   102         138.2893078180        3763.0433751572     A'        A'  (1)
  156   103         138.5810453661        3770.9819574290     A'        A'  (1)
  157   104         149.4520869774        4066.7980386728     A'        A'  (1)


  VSCF finished.

 @CHECKOUT-I, Total execution time (CPU/WALL):       71.60/      13.69 seconds.
--executable xvscf finished with status     0 in       13.74 seconds (walltime).
 --invoking executable--
/home/asmola/.local/bin/xvtran
 @GETMEM-I,  Allocated    3814 MB of main memory.
  Full RHF integral transformation
  Transformation of IIII integrals :
  1 pass through the AO integral file was required.
    14102637 AO integrals were read.
    15933126 MO integrals were written to HF2.
  Transformation of IIJJ integrals :
  1 pass through the AO integral file was required.
     6866871 AO integrals were read.
     7813260 MO integrals were written to HF2.
  Transformation of IJIJ integrals :
  1 pass through the AO integral file was required.
    13264973 AO integrals were read.
    15193828 MO integrals were written to HF2.
  Summary of active molecular orbitals: 
------------------------------------------------------------------------
 
  Index      Eigenvalue    Symmetry    Index      Eigenvalue    Symmetry
------------------------------------------------------------------------
     1      -104.8835134        1        80         7.1291057        1
     2       -20.6695132        1        81         7.4525179        1
     3       -10.6032516        1        82         7.6426382        1
     4        -8.0698900        1        83        10.3593240        1
     5        -8.0677712        1        84        10.4323118        1
     6        -1.3507693        1        85        10.5961180        1
     7        -1.0266726        1        86        12.7258722        1
     8        -0.5963417        1        87        13.1893973        1
     9        -0.5737992        1        88        18.2489403        1
    10        -0.4241900        1        89        26.1595700        1
    11        -8.0675609        2        90        26.5712997        1
    12        -0.6021787        2        91        28.7448582        1
    13        -0.4337767        2        92        36.9030254        1
    14        -0.0343116        1        93        36.9047879        1
    15         0.0535638        1        94        36.9111722        1
    16         0.0824804        1        95        36.9158470        1
    17         0.1182264        1        96        43.8729249        1
    18         0.1490323        1        97        43.9344022        1
    19         0.1640565        1        98        44.0474822        1
    20         0.1763896        1        99        46.4913798        1
    21         0.2223108        1       100        46.5343200        1
    22         0.2783010        1       101        46.6178199        1
    23         0.3098265        1       102        55.0700401        1
    24         0.3381821        1       103        55.6136984        1
    25         0.3869135        1       104       103.7908092        1
    26         0.4587171        1       105       138.2893078        1
    27         0.5091261        1       106       138.5810454        1
    28         0.5897903        1       107       149.4520870        1
    29         0.6443434        1       108         0.1178384        2
    30         0.6705617        1       109         0.1916003        2
    31         0.7525703        1       110         0.2456490        2
    32         0.7657692        1       111         0.3718658        2
    33         0.7983007        1       112         0.4257621        2
    34         0.8270185        1       113         0.6184303        2
    35         0.9021794        1       114         0.7426057        2
    36         0.9576985        1       115         0.7767296        2
    37         0.9831858        1       116         0.8256503        2
    38         1.0109051        1       117         0.8867987        2
    39         1.0331241        1       118         0.9404118        2
    40         1.0569181        1       119         0.9613676        2
    41         1.1063181        1       120         1.0935828        2
    42         1.2053511        1       121         1.1653990        2
    43         1.2137765        1       122         1.2901178        2
    44         1.3328621        1       123         1.3635973        2
    45         1.5080906        1       124         1.5238919        2
    46         1.5187112        1       125         2.1482870        2
    47         1.6232941        1       126         2.2215482        2
    48         1.7258521        1       127         2.3063773        2
    49         1.8280163        1       128         2.3890601        2
    50         2.1953401        1       129         2.4414789        2
    51         2.2625905        1       130         2.4797390        2
    52         2.3130211        1       131         2.5196203        2
    53         2.3181178        1       132         2.9029922        2
    54         2.3680663        1       133         3.0622022        2
    55         2.4031663        1       134         3.1013930        2
    56         2.4968792        1       135         3.3664829        2
    57         2.5120147        1       136         3.8097076        2
    58         2.6193703        1       137         3.9485711        2
    59         2.8963126        1       138         4.0782010        2
    60         2.9691548        1       139         4.1971127        2
    61         3.0523214        1       140         6.5699416        2
    62         3.1115151        1       141         6.6609453        2
    63         3.1329425        1       142         6.7715382        2
    64         3.2092241        1       143         7.0562433        2
    65         3.3726048        1       144         7.1662988        2
    66         3.3989358        1       145        10.3545922        2
    67         3.8074807        1       146        10.3930110        2
    68         3.8451254        1       147        12.6838612        2
    69         4.0613545        1       148        26.0490788        2
    70         4.1758841        1       149        36.9017832        2
    71         4.2725250        1       150        36.9034401        2
    72         4.4428209        1       151        36.9110646        2
    73         4.7948503        1       152        43.8596590        2
    74         5.1218243        1       153        43.8959553        2
    75         5.8938444        1       154        46.4887487        2
    76         6.6162579        1       155        46.5135724        2
    77         6.6804092        1       156        55.0229289        2
    78         6.8690870        1       157       138.2104622        2
    79         6.9340540        1
------------------------------------------------------------------------
  -104.883513394641       -20.6695132138001       -10.6032516003670     
  -8.06989003523673       -8.06777117129258       -1.35076927806474     
  -1.02667258301702      -0.596341725211592      -0.573799239905311     
 -0.424189977861242       -8.06756088040133      -0.602178689682680     
 -0.433776726276386      -3.431160622661682E-002  5.356379376100773E-002
  8.248036616745590E-002  0.118226383496464       0.149032259301601     
  0.164056537417672       0.176389569649108       0.222310787926248     
  0.278301049193362       0.309826541070048       0.338182079793577     
  0.386913492191025       0.458717131953089       0.509126122223207     
  0.589790290213944       0.644343413623936       0.670561663086167     
  0.752570262881242       0.765769235008425       0.798300705944901     
  0.827018492993779       0.902179431094173       0.957698488895631     
  0.983185841983094        1.01090508617442        1.03312406478459     
   1.05691812914308        1.10631814661051        1.20535108282374     
   1.21377645817885        1.33286205247812        1.50809064678067     
   1.51871118685739        1.62329412243194        1.72585208890790     
   1.82801632087562        2.19534010728948        2.26259054811947     
   2.31302111831356        2.31811777229855        2.36806627661213     
   2.40316632785277        2.49687923969571        2.51201467319045     
   2.61937033914880        2.89631257095126        2.96915479161462     
   3.05232143998391        3.11151510678412        3.13294250693411     
   3.20922411344008        3.37260483319208        3.39893578307393     
   3.80748065152978        3.84512544192133        4.06135448485600     
   4.17588411276431        4.27252495978869        4.44282090926898     
   4.79485027849199        5.12182429674182        5.89384443131058     
   6.61625794552500        6.68040919850912        6.86908703485789     
   6.93405402697029        7.12910568785852        7.45251786773422     
   7.64263818940827        10.3593239847982        10.4323117699815     
   10.5961179686881        12.7258721786015        13.1893973395601     
   18.2489403071221        26.1595700132469        26.5712997102556     
   28.7448581797708        36.9030254311377        36.9047879103991     
   36.9111722451787        36.9158469635025        43.8729248773929     
   43.9344022313423        44.0474821550796        46.4913798017196     
   46.5343200433370        46.6178199494880        55.0700400878423     
   55.6136984136467        103.790809156850        138.289307818036     
   138.581045366073        149.452086977421       0.117838449388349     
  0.191600301169867       0.245649000335791       0.371865772848602     
  0.425762135859795       0.618430280230128       0.742605711071139     
  0.776729558074456       0.825650315516950       0.886798661914884     
  0.940411774177498       0.961367580554836        1.09358279562761     
   1.16539900252243        1.29011783848168        1.36359725246422     
   1.52389190212848        2.14828695491410        2.22154817739733     
   2.30637729951011        2.38906014906132        2.44147891768642     
   2.47973902178982        2.51962033624612        2.90299223401839     
   3.06220218783519        3.10139304493751        3.36648287516753     
   3.80970756474336        3.94857109117946        4.07820099684955     
   4.19711270627748        6.56994160629042        6.66094528088667     
   6.77153816678772        7.05624326099311        7.16629881952731     
   10.3545922412280        10.3930109771761        12.6838611747831     
   26.0490788139193        36.9017831822899        36.9034401033437     
   36.9110646322068        43.8596589764270        43.8959552690468     
   46.4887487475940        46.5135724298689        55.0229289041781     
   138.210462202592     
 @CHECKOUT-I, Total execution time (CPU/WALL):       34.08/      19.31 seconds.
--executable xvtran finished with status     0 in       19.37 seconds (walltime).
 --invoking executable--
/home/asmola/.local/bin/xintprc
 @GETMEM-I,  Allocated    3814 MB of main memory.
  Processing integrals for CCSD calculation.
  @GMOIAA-I, Processing MO integrals for spin case AA.
  @GMOIAA-I, Generation of integral list completed.
                      TYPE                NUMBER
                      ----               --------
                      PPPP              27524020
                      PPPH               9932000
                      PPHH                900748
                      PHPH                491140
                      PHHH                 89950
                      HHHH                  2356

                     TOTAL              38940214

  @FORMT2-I, Second-order MP correlation energies:
            ------------------------------------------------
            E(SCF)                  =   -534.758517631695 a.u.
            E2(AA)                  =     -0.111462895099 a.u.
            E2(AB)                  =     -0.661087946050 a.u.
            E2(TOT)                 =     -0.884013736247 a.u.
            Total MP2 energy        =   -535.642531367942 a.u.
            ------------------------------------------------
   Largest T2 amplitudes for spin case AB:
       _       _                 _       _                 _       _
   i   j   a   b             i   j   a   b             i   j   a   b
-----------------------------------------------------------------------------
[ 10  10  14  14]-0.06738 [  9   9  14  14]-0.05379 [ 10   9  14  14]-0.04859
[  9  10  14  14]-0.04859 [  8   8  19  19]-0.03800 [  9   8  14  19]-0.02665
[  8   9  19  14]-0.02665 [ 10   8  14  14] 0.02532 [  8  10  14  14] 0.02532
[  8   8  19  16] 0.02495 [  8   8  16  19] 0.02495 [ 10  10  15  14] 0.02278
[ 10  10  14  15] 0.02278 [  9   8  14  16] 0.02160 [  8   9  16  14] 0.02160
-----------------------------------------------------------------------------
   Norm of T2AB vector (  1799624 symmetry allowed elements):  0.3780096063.
-----------------------------------------------------------------------------
 @CHECKOUT-I, Total execution time (CPU/WALL):        7.39/       9.11 seconds.
--executable xintprc finished with status     0 in        9.37 seconds (walltime).
  calling xvcc 
 --invoking executable--
/home/asmola/.local/bin/xvcc
 @GETMEM-I,  Allocated    3814 MB of main memory.
   CCSD energy will be calculated.
   The total correlation energy is -0.884013736247 a.u.
   The total correlation energy is -0.869357874110 a.u.
  Convergence information after     1 iterations: 
  Largest element of residual vector :  0.23369037E-01.
  Largest element of DIIS residual   :  0.23369037E-01.
   The total correlation energy is -0.894745920820 a.u.
  Convergence information after     2 iterations: 
  Largest element of residual vector : -0.20571773E-01.
  Largest element of DIIS residual   : -0.17926952E-01.
   The total correlation energy is -0.892994414259 a.u.
  Convergence information after     3 iterations: 
  Largest element of residual vector :  0.91200140E-02.
  Largest element of DIIS residual   :  0.96543719E-02.
   The total correlation energy is -0.896698147594 a.u.
  Convergence information after     4 iterations: 
  Largest element of residual vector : -0.41530416E-02.
  Largest element of DIIS residual   : -0.21274685E-02.
   The total correlation energy is -0.897542613035 a.u.
  Convergence information after     5 iterations: 
  Largest element of residual vector :  0.29182353E-02.
  Largest element of DIIS residual   :  0.13690673E-02.
   The total correlation energy is -0.897614767024 a.u.
  Convergence information after     6 iterations: 
  Largest element of residual vector :  0.75273772E-03.
  Largest element of DIIS residual   :  0.42896493E-03.
   The total correlation energy is -0.897624144046 a.u.
  Convergence information after     7 iterations: 
  Largest element of residual vector :  0.56658254E-03.
  Largest element of DIIS residual   :  0.26389623E-03.
   The total correlation energy is -0.897639414677 a.u.
  Convergence information after     8 iterations: 
  Largest element of residual vector :  0.21733301E-03.
  Largest element of DIIS residual   :  0.83219304E-04.
   The total correlation energy is -0.897628748152 a.u.
  Convergence information after     9 iterations: 
  Largest element of residual vector :  0.83768922E-04.
  Largest element of DIIS residual   : -0.38646135E-04.
   The total correlation energy is -0.897637926539 a.u.
  Convergence information after    10 iterations: 
  Largest element of residual vector : -0.30242443E-04.
  Largest element of DIIS residual   : -0.29501822E-04.
   The total correlation energy is -0.897638248050 a.u.
  Convergence information after    11 iterations: 
  Largest element of residual vector :  0.25055061E-04.
  Largest element of DIIS residual   :  0.17811321E-04.
   The total correlation energy is -0.897639794631 a.u.
  Convergence information after    12 iterations: 
  Largest element of residual vector : -0.86093988E-05.
  Largest element of DIIS residual   : -0.61187313E-05.
   The total correlation energy is -0.897640644070 a.u.
  Convergence information after    13 iterations: 
  Largest element of residual vector :  0.92303583E-05.
  Largest element of DIIS residual   :  0.32693807E-05.
   The total correlation energy is -0.897640920070 a.u.
  Convergence information after    14 iterations: 
  Largest element of residual vector :  0.20210871E-05.
  Largest element of DIIS residual   :  0.16390901E-05.
   The total correlation energy is -0.897641006709 a.u.
  Convergence information after    15 iterations: 
  Largest element of residual vector :  0.15817775E-05.
  Largest element of DIIS residual   :  0.77309795E-06.
   The total correlation energy is -0.897641041564 a.u.
  Convergence information after    16 iterations: 
  Largest element of residual vector :  0.60587267E-06.
  Largest element of DIIS residual   :  0.37458237E-06.
   The total correlation energy is -0.897641012608 a.u.
  Convergence information after    17 iterations: 
  Largest element of residual vector :  0.28085846E-06.
  Largest element of DIIS residual   :  0.21498791E-06.
   The total correlation energy is -0.897641008474 a.u.
  Convergence information after    18 iterations: 
  Largest element of residual vector :  0.13784192E-06.
  Largest element of DIIS residual   :  0.91708508E-07.
   The total correlation energy is -0.897640994026 a.u.
  Convergence information after    19 iterations: 
  Largest element of residual vector :  0.78498969E-07.
  Largest element of DIIS residual   :  0.47518018E-07.
   The total correlation energy is -0.897640994469 a.u.
  Convergence information after    20 iterations: 
  Largest element of residual vector : -0.36645686E-07.
  Largest element of DIIS residual   : -0.31554462E-07.
   The total correlation energy is -0.897640993926 a.u.
  Convergence information after    21 iterations: 
  Largest element of residual vector :  0.24150834E-07.
  Largest element of DIIS residual   :  0.21108441E-07.
   The total correlation energy is -0.897640994832 a.u.
  Convergence information after    22 iterations: 
  Largest element of residual vector :  0.93386814E-08.
  Largest element of DIIS residual   :  0.59512918E-08.
   The total correlation energy is -0.897640995441 a.u.
  Convergence information after    23 iterations: 
  Largest element of residual vector :  0.10324372E-07.
  Largest element of DIIS residual   :  0.52096871E-08.
   The total correlation energy is -0.897640995782 a.u.
  Convergence information after    24 iterations: 
  Largest element of residual vector :  0.24894614E-08.
  Largest element of DIIS residual   :  0.15070731E-08.
   The total correlation energy is -0.897640995880 a.u.
  Convergence information after    25 iterations: 
  Largest element of residual vector :  0.18376537E-08.
  Largest element of DIIS residual   :  0.80123755E-09.
[...]
 final tnorm  0.774640971175852     
  norm contr. I: |<0|L dT/dx|0>|^2   0.000000000000000E+000
  norm contr. II: <0|[nabla(1+L)e-T][nabla e^T]|0>  0.451226636588764     
  total norm contribution  0.451226636588764     
 oo  2.062804870226498E-003
 vv  -1.43179535781408     
 vo -3.108338402801228E-002
  Correlated perturbed 1-el contribution to DBOC  -1.46081593697186       cm**-1
  SUM_I |dc_I/dx|^2 contribution to DBOC  0.735016730173911       cm**-1
 
 
  The total diagonal Born-Oppenheimer correction (DBOC) is:      0.0084332252 a.u.
  The total diagonal Born-Oppenheimer correction (DBOC) is:       1850.878998 cm-1
 
 Total CC energy including DBOC  -535.647725402330     
 First-order density matrix is being calculated  (Symmetry block 2, perturbation   3)
 Calculation of the contributions of <pq||rs> to dI(i,j)/dx required   3.8 seconds.
 Calculation of the contributions of <pq||rs> to dI(a,b)/dx required   9.9 seconds.
 Calculation of the contributions of <pq||rs> to dI(i,a)/dx required   6.3 seconds.
 First-order Z-vector equations are solved for 1 perturbation.
 Convergence reached after  22 iterations.
        U*G(pq,rs) contribution is being calculated
             (Symmetry block 2, perturbation   3)

 CCSD contribution to force constants 

        0.0000000000        0.0000000000        0.0000000000
        0.0000000000        0.0000000000        0.0000000000
        0.0000000000        0.0000000000        0.0000000000
        0.0000000000        0.0000000000        0.0000000000
        0.0000000000        0.0000000000        0.0000000000
        0.0000000000        0.0000000000        0.0000000000
        0.0000000000        0.0000000000        0.0000000000
        0.0000000000        0.0000000000        0.0000000000
        0.0000000000        0.0000000000        0.0000000000
        0.0000000000        0.0000000000        0.0000000000
        0.0000000000        0.0000000000        0.0000000000
        0.0000000000        0.0000000000        0.0000000000
        0.0000000000        0.0000000000        0.0000000000
        0.0000000000        0.0000000000        0.0000000000
        0.0000000000        0.0000000000        0.0000000000
        0.0000000000        0.0000000000        0.0000000000
        0.0000000000        0.0000000000        0.0000000000
        0.0000000000        0.0000000000        0.0000000000
        0.0000000000        0.0000000000        0.0000000000
        0.0000000000        0.0000000000        0.0000000000
        0.0000000000        0.0000000000        0.0000000000
        0.0000000000        0.0000000000        0.0000000000
        0.0000000000        0.0000000000        0.0000000000
        0.0000000000        0.0000000000        0.0000000000
        0.0000000000        0.0000000000        0.0000000000
        0.0000000000        0.0000000000        0.0000000000
        0.0769436022        0.0080103781       -0.0849539803

 CCSD contribution to dipole derivatives 

        0.0000000000        0.0000000000        0.0000000000
        0.0000000000        0.0000000000        0.0000000000
        0.0000000000        0.0000000000        0.0000000000
        0.0000000000        0.0000000000        0.0000000000
        0.0000000000        0.0000000000        0.0000000000
        0.0000000000        0.0000000000        0.0000000000
        0.0000000000        0.0000000000        0.0000000000
        0.0000000000        0.0000000000        0.0000000000
        0.0000000000        0.0000000000        0.0223701899
 @CHECKOUT-I, Total execution time (CPU/WALL):     1078.18/     283.58 seconds.
--executable xsdcc finished with status     0 in      283.76 seconds (walltime).
 --invoking executable--
/home/asmola/.local/bin/xanti
 @GETMEM-I,  Allocated    3814 MB of main memory.
 CCSD MO derivative gammas will be sorted to Mulliken order.
 @CHECKOUT-I, Total execution time (CPU/WALL):        6.27/       4.98 seconds.
--executable xanti finished with status     0 in        5.11 seconds (walltime).
 --invoking executable--
/home/asmola/.local/bin/xbcktrn
 @GETMEM-I,  Allocated    3814 MB of main memory.
 CCSD MO derivative gammas will be transformed to the AO basis.
 @CHECKOUT-I, Total execution time (CPU/WALL):       11.15/       2.46 seconds.
--executable xbcktrn finished with status     0 in        2.52 seconds (walltime).
 --invoking executable--
/home/asmola/.local/bin/xvdint
 @GETMEM-I,  Allocated    3814 MB of main memory.
 One- and two-electron integral derivatives are calculated
 for RHF-CC/MBPT hessians and dipole derivatives.
 Spherical gaussians are used.
  magnet F F
 Evaluation of 2el integral derivatives

                      Two-electron integral gradient
                      ------------------------------

                         O #1 x     0.0000000000
                         O #1 y     0.0000000000
                         H #2 x     0.0000000000
                         H #2 y     0.0000000000
                         CL#3 x     0.0000000000
                         CL#3 y     0.0000000000


 O #1       0.0000000000            0.0000000000           -0.0852753208
 H #2       0.0000000000            0.0000000000            0.0000353967
 CL#3       0.0000000000            0.0000000000            0.0852399241


 Evaluation of 2e integral derivatives required  115.91 seconds.
  contribution to Hessian
        0.0000000000        0.0000000000        0.0000000000
        0.0000000000        0.0000000000        0.0000000000
       -0.0852753208        0.0000353967        0.0852399241
 @CHECKOUT-I, Total execution time (CPU/WALL):      116.01/      20.75 seconds.
--executable xvdint finished with status     0 in       20.86 seconds (walltime).
 --invoking executable--
/home/asmola/.local/bin/xanti
 @GETMEM-I,  Allocated    3814 MB of main memory.
 CCSD MO gammas will be sorted to Mulliken order.
 @CHECKOUT-I, Total execution time (CPU/WALL):        9.47/      15.73 seconds.
--executable xanti finished with status     0 in       15.83 seconds (walltime).
 --invoking executable--
/home/asmola/.local/bin/xbcktrn
 @GETMEM-I,  Allocated    3814 MB of main memory.
 CCSD MO gammas will be transformed to the AO basis.
 @CHECKOUT-I, Total execution time (CPU/WALL):       18.95/       3.74 seconds.
--executable xbcktrn finished with status     0 in        3.82 seconds (walltime).
 --invoking executable--
/home/asmola/.local/bin/xvdint
 @GETMEM-I,  Allocated    3814 MB of main memory.
 One- and two-electron integral derivatives are calculated
 for RHF-CC/MBPT hessians and dipole derivatives.
 Spherical gaussians are used.
  magnet F F

                     Kinetic energy integral gradient
                     --------------------------------

                         O #1 x     0.3086586285
                         O #1 y    -0.1098332965
                         H #2 x     0.0436734965
                         H #2 y     0.0948737259
                         CL#3 x    -0.3523321251
                         CL#3 y     0.0149595705


 O #1       0.3086586285           -0.1098332965            0.0000000000
 H #2       0.0436734965            0.0948737259            0.0000000000
 CL#3      -0.3523321251            0.0149595705            0.0000000000



                   Nuclear attraction integral gradient
                   ------------------------------------

                         O #1 x   -25.5143059246
                         O #1 y     4.4577006053
                         H #2 x    -1.9507234422
                         H #2 y    -3.0629976560
                         CL#3 x    27.4650293668
                         CL#3 y    -1.3947029492


 O #1     -25.5143059246            4.4577006053            0.0000000000
 H #2      -1.9507234422           -3.0629976560            0.0000000000
 CL#3      27.4650293668           -1.3947029492            0.0000000000



                      Reorthonormalization gradient
                      -----------------------------

                         O #1 x     0.0000000000
                         O #1 y     0.0000000000
                         H #2 x     0.0000000000
                         H #2 y     0.0000000000
                         CL#3 x     0.0000000000
                         CL#3 y     0.0000000000


 O #1       0.0000000000            0.0000000000            0.0000000000
 H #2       0.0000000000            0.0000000000            0.0000000000
 CL#3       0.0000000000            0.0000000000            0.0000000000



                     Kinetic energy integral Hessian
                     -------------------------------


           Symmetry 1

           O #1 x      O #1 y      H #2 x      H #2 y      CL#3 x      CL#3 y

 O #1 x    0.373251
 O #1 y    0.026254   -0.146275
 H #2 x    0.014561   -0.063165   -0.020226
 H #2 y   -0.063165   -0.080848    0.061805    0.082810
 CL#3 x   -0.387811    0.036910    0.005665    0.001360    0.382146
 CL#3 y    0.036910    0.227123    0.001360   -0.001962   -0.038270   -0.225161


           Symmetry 2

           O #1 z      H #2 z      CL#3 z

 O #1 z   -0.266192
 H #2 z    0.049723   -0.048600
 CL#3 z    0.216469   -0.001122   -0.215347




           O #1 x      O #1 y      O #1 z      H #2 x      H #2 y      H #2 z

 O #1 x    0.373251
 O #1 y    0.026254   -0.146275
 O #1 z    0.000000    0.000000   -0.266192

 H #2 x    0.014561   -0.063165    0.000000   -0.020226
 H #2 y   -0.063165   -0.080848    0.000000    0.061805    0.082810
 H #2 z    0.000000    0.000000    0.049723    0.000000    0.000000   -0.048600

 CL#3 x   -0.387811    0.036910    0.000000    0.005665    0.001360    0.000000
 CL#3 y    0.036910    0.227123    0.000000    0.001360   -0.001962    0.000000
 CL#3 z    0.000000    0.000000    0.216469    0.000000    0.000000   -0.001122


           CL#3 x      CL#3 y      CL#3 z

 CL#3 x    0.382146
 CL#3 y   -0.038270   -0.225161
 CL#3 z    0.000000    0.000000   -0.215347




                   Nuclear attraction integral Hessian
                   -----------------------------------


           Symmetry 1

           O #1 x      O #1 y      H #2 x      H #2 y      CL#3 x      CL#3 y

 O #1 x  -13.645921
 O #1 y    1.063943    9.632436
 H #2 x   -0.732193    1.009830    0.612498
 H #2 y    0.995872    0.795315   -1.365697   -1.004528
 CL#3 x   14.378114   -2.073773    0.119696    0.369825  -14.497810
 CL#3 y   -2.059814  -10.427751    0.355867    0.209212    1.703947   10.218539


           Symmetry 2

           O #1 z      H #2 z      CL#3 z

 O #1 z   11.113855
 H #2 z   -1.279330    1.435721
 CL#3 z   -9.834526   -0.156392    9.990917




           O #1 x      O #1 y      O #1 z      H #2 x      H #2 y      H #2 z

 O #1 x  -13.645921
 O #1 y    1.063943    9.632436
 O #1 z    0.000000    0.000000   11.113855

 H #2 x   -0.732193    1.009830    0.000000    0.612498
 H #2 y    0.995872    0.795315    0.000000   -1.365697   -1.004528
 H #2 z    0.000000    0.000000   -1.279330    0.000000    0.000000    1.435721

 CL#3 x   14.378114   -2.073773    0.000000    0.119696    0.369825    0.000000
 CL#3 y   -2.059814  -10.427751    0.000000    0.355867    0.209212    0.000000
 CL#3 z    0.000000    0.000000   -9.834526    0.000000    0.000000   -0.156392


           CL#3 x      CL#3 y      CL#3 z

 CL#3 x  -14.497810
 CL#3 y    1.703947   10.218539
 CL#3 z    0.000000    0.000000    9.990917




                Highest order reorthonormalization Hessian
                ------------------------------------------


           Symmetry 1

           O #1 x      O #1 y      H #2 x      H #2 y      CL#3 x      CL#3 y

 O #1 x    0.000000
 O #1 y    0.000000    0.000000
 H #2 x    0.000000    0.000000    0.000000
 H #2 y    0.000000    0.000000    0.000000    0.000000
 CL#3 x    0.000000    0.000000    0.000000    0.000000    0.000000
 CL#3 y    0.000000    0.000000    0.000000    0.000000    0.000000    0.000000


           Symmetry 2

           O #1 z      H #2 z      CL#3 z

 O #1 z    0.000000
 H #2 z    0.000000    0.000000
 CL#3 z    0.000000    0.000000    0.000000




           O #1 x      O #1 y      O #1 z      H #2 x      H #2 y      H #2 z


           CL#3 x      CL#3 y      CL#3 z




                Electronic contributions to dipole moment
                -----------------------------------------

                               au             Debye

                    x      3.04112850      7.72977897
                    y      0.73809246      1.87604424

  Conversion factor used: 1 a.u. =   2.54174691 Debye 



   Electronic contributions to static part of dipole moment derivatives
   --------------------------------------------------------------------


                     Total dipole moment derivatives
                     -------------------------------


           Symmetry 1
                              Ex             Ey

               O #1 x    -8.66830045    -0.08264376
               O #1 y    -0.31348533    -8.71373618
               H #2 x    -0.58733689     0.05718741
               H #2 y     0.34747090    -0.49205675
               CL#3 x   -16.74436266     0.02545635
               CL#3 y    -0.03398557   -16.79420706

           Symmetry 2
                              Ez

               O #1 z    -8.38474127
               H #2 z    -0.77387712
               CL#3 z   -16.84138162



                       Ex          Ey          Ez

      O #1    x   -8.668300   -0.082644    0.000000
      O #1    y   -0.313485   -8.713736    0.000000
      O #1    z    0.000000    0.000000   -8.384741

      H #2    x   -0.587337    0.057187    0.000000
      H #2    y    0.347471   -0.492057    0.000000
      H #2    z    0.000000    0.000000   -0.773877

      CL#3    x  -16.744363    0.025456    0.000000
      CL#3    y   -0.033986  -16.794207    0.000000
      CL#3    z    0.000000    0.000000  -16.841382

 Evaluation of 1e integral derivatives required    1.58 seconds.
 Evaluation of 2el integral derivatives

                      Two-electron integral gradient
                      ------------------------------

                         O #1 x    11.9888868371
                         O #1 y    -2.3408329458
                         H #2 x     1.0077786497
                         H #2 y     1.7519899035
                         CL#3 x   -12.9966654868
                         CL#3 y     0.5888430424


 O #1      11.9888868371           -2.3408329458            0.0000000000
 H #2       1.0077786497            1.7519899035            0.0000000000
 CL#3     -12.9966654868            0.5888430424            0.0000000000


 Evaluation of 2e integral derivatives required  299.23 seconds.

                            Molecular gradient
                            ------------------

                         O #1 x    -0.1064690208
                         O #1 y     0.1618523784
                         H #2 x    -0.0649641120
                         H #2 y    -0.1561476666
                         CL#3 x     0.1714331328
                         CL#3 y    -0.0057047117


 O #1      -0.1064690208            0.1618523784            0.0000000000
 H #2      -0.0649641120           -0.1561476666            0.0000000000
 CL#3       0.1714331328           -0.0057047117            0.0000000000


  Molecular gradient norm 0.309E+00

                            Molecular hessian
                            -----------------


           Symmetry 1

           O #1 x      O #1 y      H #2 x      H #2 y      CL#3 x      CL#3 y

 O #1 x    2.029800
 O #1 y    0.496644    1.826319
 H #2 x   -0.353703   -1.133231    0.288955
 H #2 y   -1.008628   -2.813417    0.997817    2.720033
 CL#3 x   -1.676098    1.013269   -0.022954   -0.074640    1.699052
 CL#3 y    0.511983    0.987097   -0.007052   -0.009241   -0.504931   -0.977856


           Symmetry 2

           O #1 z      H #2 z      CL#3 z

 O #1 z    0.177922
 H #2 z   -0.069463    0.041490
 CL#3 z   -0.108458    0.009082    0.099376




           O #1 x      O #1 y      O #1 z      H #2 x      H #2 y      H #2 z

 O #1 x    2.029800
 O #1 y    0.496644    1.826319
 O #1 z    0.000000    0.000000    0.177922

 H #2 x   -0.353703   -1.133231    0.000000    0.288955
 H #2 y   -1.008628   -2.813417    0.000000    0.997817    2.720033
 H #2 z    0.000000    0.000000   -0.069463    0.000000    0.000000    0.041490

 CL#3 x   -1.676098    1.013269    0.000000   -0.022954   -0.074640    0.000000
 CL#3 y    0.511983    0.987097    0.000000   -0.007052   -0.009241    0.000000
 CL#3 z    0.000000    0.000000   -0.108458    0.000000    0.000000    0.009082


           CL#3 x      CL#3 y      CL#3 z

 CL#3 x    1.699052
 CL#3 y   -0.504931   -0.977856
 CL#3 z    0.000000    0.000000    0.099376




                           Total dipole moment
                           -------------------

                               au             Debye

                    x     -0.13578783     -0.34513830
                    y     -0.58114224     -1.47711649

  Conversion factor used: 1 a.u. =   2.54174691 Debye 



                     Total dipole moment derivatives
                     -------------------------------


           Symmetry 1
                              Ex             Ey

               O #1 x     0.17542385     0.27366297
               O #1 y     0.22387091     0.10110516
               H #2 x     0.01706675    -0.17729989
               H #2 y    -0.29883078    -0.17065434
               CL#3 x    -0.19249034    -0.09636267
               CL#3 y     0.07496003     0.06954932

           Symmetry 2
                              Ez

               O #1 z    -0.22105752
               H #2 z     0.19176164
               CL#3 z     0.02929580



                       Ex          Ey          Ez

      O #1    x    0.175424    0.273663    0.000000
      O #1    y    0.223871    0.101105    0.000000
      O #1    z    0.000000    0.000000   -0.221058

      H #2    x    0.017067   -0.177300    0.000000
      H #2    y   -0.298831   -0.170654    0.000000
      H #2    z    0.000000    0.000000    0.191762

      CL#3    x   -0.192490   -0.096363    0.000000
      CL#3    y    0.074960    0.069549    0.000000
      CL#3    z    0.000000    0.000000    0.029296

  Molecular gradient does not satisfy rotational invariance condition.
   rotational invariance in yz-plane :        0.0000E+00
   rotational invariance in xz-plane :        0.0000E+00
   rotational invariance in xy-plane :        -.2009E-01
 @CHECKOUT-I, Total execution time (CPU/WALL):      300.86/      43.05 seconds.
--executable xvdint finished with status     0 in       43.16 seconds (walltime).
 --invoking executable--
/home/asmola/.local/bin/xjoda
  @GTFLGS-I, Hessian will be transformed to curvilinear coordinates.
  @GTFLGS-I, Hessian will be transformed to curvilinear coordinates.
  igrd and ihes are                      0                     1
  gradient from JOBARC 
  -0.106469020790728   0.161852378368929   0.000000000000000
  -0.064964111961747  -0.156147666620894   0.000000000000000
   0.171433132752462  -0.005704711748030   0.000000000000000
 
  @PROJFCM-I, Projecting force constant matrix onto totally symmetric subspace.
  Largest difference between matrix elements of symmetrized
  and unsymmetrized FCM :     0.0000000000E+00.
  read isotopes from ZMAT file 
 
  Summary of diagonal Born-Oppenheimer correction at the correlated level
  The total diagonal Born-Oppenheimer correction (DBOC) is:      0.0084332252 a.u.
  The total diagonal Born-Oppenheimer correction (DBOC) is:       1850.878998 cm-1
  The total diagonal Born-Oppenheimer correction (DBOC) is:            22.141 kJ/mole
  hellooooooo 
  readis is  F
 
 @CHECKOUT-I, Total execution time (CPU/WALL):        0.02/       0.07 seconds.
--executable xjoda finished with status     0 in        0.21 seconds (walltime).
  The final electronic energy is      -535.647725402329797 a.u. 
  This computation required                         3011.94 seconds (walltime).
