 --invoking executable--
/home/asmola/.local/bin/xjoda


   *************************************************************************
         <<<     CCCCCC     CCCCCC   |||     CCCCCC     CCCCCC   >>>
       <<<      CCC        CCC       |||    CCC        CCC         >>>
      <<<      CCC        CCC        |||   CCC        CCC            >>>
    <<<        CCC        CCC        |||   CCC        CCC              >>>
      <<<      CCC        CCC        |||   CCC        CCC            >>>
       <<<      CCC        CCC       |||    CCC        CCC         >>>
         <<<     CCCCCC     CCCCCC   |||     CCCCCC     CCCCCC   >>>
   *************************************************************************

     ****************************************************************
     * CFOUR Coupled-Cluster techniques for Computational Chemistry *
     ****************************************************************
 

   Department of Chemistry                Institut fuer Physikalische Chemie
   University of Florida                  Universitaet Mainz
   Gainesville, FL 32611, USA             D-55099 Mainz, Germany

   Department of Chemistry                Fakultaet fuer Chemie und Biowiss.
   Johns Hopkins University               Karlsruher Institut fuer Technologie
   Baltimore, MD 21218, USA               D-76131 Karlsruhe, Germany

   Department of Chemistry                Department of Physical Chemistry
   Southern Methodist University          Eotvos Lorand University
   Dallas, TX 75275, USA                  H-1053 Budapest, Hungary

 
                       Version 2.1
 
                     vincent.theory.phys.ucl.ac.uk                     
                     Thu 30 Jan 03:48:37 GMT 2025                      
                     integer*8 version is running
 
********************************************************************************
*                          Input from ZMAT file                                *
********************************************************************************
Hypochlorous acid DBOC calculation                                              
O                                                                               
H 1 ROH                                                                         
CL 1 ROCL 2 A                                                                   
                                                                                
ROH=1.1500000000000004                                                          
ROCL=1.683                                                                      
A=107.0                                                                         
                                                                                
                                                                                
*CFOUR(CALC=CCSD,BASIS=AUG-PCVTZ,SCF_CONV=10                                    
CC_CONV=10,DBOC=ON,MEMORY=500000000)                                            
********************************************************************************
  @GTFLGS-I, Hessian will be transformed to curvilinear coordinates.
    -------------------------------------------------------------------
                    CFOUR Control Parameters 
    -------------------------------------------------------------------
        External           Internal           Value            Units
          Name               Name
    -------------------------------------------------------------------
       ABCDTYPE             IABCDT         STANDARD    [  0]    ***   
       ANHARMONIC           IANHAR         OFF         [  0]    ***   
       ANH_ALGORIT          IANALG         STANDARD    [  0]    ***   
       ANH_DERIVAT          IANDER         SECOND      [  1]    ***   
       ANH_MODE             ANHMOD         VIBRATION   [  0]    ***   
       ANH_STEPSIZ          ICUBST             50000          x 10-6  
       ANH_SYMMETR          IANHSM         ABELIAN     [  0]    ***   
       AO_LADDERS           IAOLAD         SINGLEPASS  [  1]    ***   
       AV_SCF               IAVSCF         OFF         [  0]    ***   
       BASIS                IBASIS         AUG-PCVTZ   [ 51]    ***   
       BOTHVECTORS          BOTHVC         OFF         [  0]    ***   
       BOX_POTENT           IPIAB          OFF         [  0]    ***   
       BREIT                IBREIT         OFF         [  0]    ***   
       BRUCK_CONV           IBRTOL          10D-  4             ***   
       BRUECKNER            IBRKNR         OFF         [  0]    ***   
       BUFFERSIZE           IBUFFS              4096            ***   
       CACHE_RECS           ICHREC             10               ***   
       CALCLEVEL            ICLLVL         CCSD        [ 10]    ***   
       CCORBOPT             ICCORB         OFF         [  0]  x 0.01  
       CC_CONV              ICCCNV          10D- 10             ***   
       CC_EXPORDER          ICCEOR              5               ***   
       CC_EXTRAPOL          ICCEXT         DIIS        [  1]    ***   
       CC_GUESS             ICCGES         MP2         [  0]    ***   
       CC_MAXCYC            ICCCYC            100              cycles 
       CC_PROGRAM           ICCPRO         VCC         [  0]    ***   
       CHARGE               ICHRGE              0               ***   
       CHOLESKY             ICHOLE         OFF         [  0]    ***   
       CIS_CONV             ICISTL              5               ***   
       COMM_SIZE            IPSIZE            ***               ***   
       CONSTANT             ICONST         OLD         [  1]    ***   
       CONTINUUM            ICONTU         NONE        [  0]    ***   
       CONTRACTION          ICNTYP         GENERAL     [  1]    ***   
       COORDINATES          ICOORD         INTERNAL    [  0]    ***   
       CPHF_CONVER          ICPHFT          10D- 16             ***   
       CPHF_MAXCYC          ICPHFC             64              cycles 
       CUBIC                ICUBIC         OFF         [  0]    ***   
       CURVILINEAR          ICURVY         ON          [  1]    ***   
       DBOC                 IDBOC          ON          [  1]    ***   
       DCT                  IDCT           OFF         [  0]    ***   
       DERIV_LEV            IDRLVL         SECOND      [  2]    ***   
       DEVMEM_SIZE          IDVMEM          50000000           MByte  
       DIAG_MRCC            IEOMST          10D-  0             ***   
       DIFF_TYPE            IDIFTY         RELAXED     [  0]    ***   
       DIRECT               IDIRCT         OFF         [  0]    ***   
       DROPMO               IDRPMO      NONE         
       ECP                  IECP           OFF         [  0]    ***   
       EIGENVECTOR          IVEC                1               ***   
       EL_ANHARM            IELANH         OFF         [  0]    ***   
       EOMFOLLOW            IEOMSR         ENERGY      [  0]    ***   
       EOMIP                IEOMIP         OFF         [  0]    ***   
       EOMLEVEL             HBARFM         SAME        [  0]    ***   
       EOM_MRCC             IMRCCE         NEW         [  1]    ***   
       EOM_NONIT            EOMNON         OFF         [  0]    ***   
       EOM_NSING            IEOMSI          10D-  0             ***   
       EOM_NSTATES          IMRCCD         DAVIDSON    [  0]    ***   
       EOM_NTRIP            IEOMTR          10D-  0             ***   
       EOM_ORDER            IEXORD         ENERGY      [  0]    ***   
       EOM_PROPSTA          IEOMST              0               ***   
       ESTATE_CONV          IEXTOL          10D-  5             ***   
       ESTATE_DIAG          IEXDIG         ITERATIVE   [  0]    ***   
       ESTATE_LOCK          IESLOC         ON          [  1]    ***   
       ESTATE_MAXC          IEXMXC             40               ***   
       ESTATE_PROP          IEXPRP         OFF         [  0]    ***   
       EVAL_HESS            IRECAL              0            # of cyc.
       EXCITATION           IEXCIT              0               ***   
       EXCITE               IEXCIT         NONE        [  0]    ***   
       EXTERN_POT           IEXPOT         OFF         [  0]    ***   
       FCGRADNEW            IFCGNW         OFF         [  0]    ***   
       FC_FIELD             IFINFC              0             x 10-6  
       FD_CALTYPE           IFDCAL         GRADONLY    [  0]    ***   
       FD_PROJECT           IFDPRJ         OFF         [  1]    ***   
       FD_STEPSIZE          IDISFD              0            10-4 bohr
       FD_USEGROUP          IFDGRP         FULL        [  0]    ***   
       FILE_RECSIZ          IFLREC              4096           words  
       FINITE_PERT          IFIPER              0             x 10-6  
       FIXGEOM              IFIXGM         OFF         [  0]    ***   
       FOCK                 IFOCK          AO          [  1]    ***   
       FREQ_ALGORI          IVIALG         STANDARD    [  0]    ***   
       FROZEN_CORE          IFROCO         OFF         [  0]    ***   
       GAMMA_ABCD           IGABCD         STORE       [  0]    ***   
       GAMMA_ABCI           IGABCI         STORE       [  0]    ***   
       GENBAS_1             IGNBS1              0               ***   
       GENBAS_2             IGNBS2              0               ***   
       GENBAS_3             IGNBS3              0               ***   
       GENBAS_4             IGNBS4              0               ***   
       GEO_CONV             ICONTL              5              H/bohr 
       GEO_MAXCYC           IOPTCY             50               ***   
       GEO_MAXSTEP          IMXSTP            300            millibohr
       GEO_METHOD           INR            SINGLE_POINT[  5]    ***   
       GIAO                 IGIAO          OFF         [  1]    ***   
       GIMIC                IGIMIC         OFF         [  0]    ***   
       GRID                 IGRID          OFF         [  0]    ***   
       GRID_ALGO            IGALGO         SERIAL      [  0]    ***   
       GUESS                IGUESS         MOREAD      [  0]    ***   
       HBAR                 IHBAR          OFF         [  0]    ***   
       HESS_TYPE            IHESTP         SCF         [  0]    ***   
       HF2_FILE             IHF2Fl         USE         [  1]    ***   
       HFSTABILITY          ISTABL         OFF         [  0]    ***   
       INCORE               INCORE         OFF         [  0]    ***   
       INPUT_MRCC           IMRCC          ON          [  1]    ***   
       INTEGRALS            INTTYP         VMOL        [  1]    ***   
       JODA_PRINT           IJPRNT              0               ***   
       KEYWORD_OUT          IDMPKW         NO          [  0]    ***   
       LINDEP_TOL           ILINDP              8               ***   
       LINEQ_CONV           IZTACN          10D-  7           cycles  
       LINEQ_EXPOR          ILMAXD              5               ***   
       LINEQ_MAXCY          ILMAXC            100               ***   
       LINEQ_TYPE           ILTYPE         DIIS        [  1]    ***   
       LOCK_ORBOCC          ILOCOC         OFF         [  0]    ***   
       MEMORY_SIZE          IMEMSZ         500000000           words  
       MEM_UNIT             IMEMU          INTEGERWORDS[  0]    ***   
       MRCC                 IMRCCC         OFF         [  0]    ***   
       MULTIPLICTY          IMULTP              1               ***   
       NACOUPLING           IVCOUP         OFF         [  0]    ***   
       NEGEVAL              IDIE           ABORT       [  0]    ***   
       NEWNORM              INEWNO         OFF         [  0]    ***   
       NON-HF               INONHF         OFF         [  0]    ***   
       NTOP_TAMP            ITOPT2             15               ***   
       NUC_MODEL            INUCMO         POINT       [  0]    ***   
       OCCUPATION           IOCCU   ESTIMATED BY SCF 
       OPEN-SHELL           IOPEN          SPIN-ORBITAL[  0]    ***   
       OPTVIB               IOPTVB         OFF         [  0]    ***   
       ORBITALS             IORBTP         STANDARD    [  0]    ***   
       PARALLEL             IPARAL         ON          [  1]    ***   
       PARA_INT             IPINTS         ON          [  1]    ***   
       PARA_PRINT           IPPRIN              0               ***   
       PERT_ORB             IPTORB         STANDARD    [  0]    ***   
       POINTS               IGRDFD              0               ***   
       PRINT                IPRNT               0               ***   
       PROPS                IPROPS         OFF         [  0]    ***   
       PROP_INTEGR          IINTYP         INTERNAL    [  0]    ***   
       PSI                  IPSI           OFF         [  0]    ***   
       QC_ALG               IQCALG         FLM         [  0]    ***   
       QC_LINALG            IQCLIN         TRIDIAG     [  2]    ***   
       QC_MAXCYC            IQCMAX          10D-100           cycles  
       QC_MAXSCFCY          IQCMSC          10D- 15           cycles  
       QC_RTRUST            IQCRTR          10D-  0           x 10-3  
       QC_SKIPSCF           IQCSKI         OFF         [  0]    ***   
       QC_START             IQCSTA          10D-  1             ***   
       QRHFGUESS            IQGUES         OFF         [  0]    ***   
       QUARTIC              IQUART         OFF         [  0]    ***   
       RAMAN_INT            IRAMIN         OFF         [  0]    ***   
       RAMAN_ORB            IRAMRE         UNRELAXED   [  0]    ***   
       RDO                  IRDOFM         ON          [  1]    ***   
       REDUCE_REPR          REDREP         Ir          [  0]    ***   
       REFERENCE            IREFNC         RHF         [  0]    ***   
       RELATIVIST           IRELAT         OFF         [  0]    ***   
       RELAX_DENS           IRDENS         ON          [  1]    ***   
       RESET_FLAGS          IRESET         OFF         [  0]    ***   
       RESTART_CC           ICCRES         OFF         [  0]    ***   
       ROT_EVEC             ROTVEC              0               ***   
       SAVE_INTS            ISVINT         OFF         [  0]    ***   
       SCALE_ON             ISTCRT              0               ***   
       SCF_CONV             ISCFCV          10D- 10             ***   
       SCF_DAMPING          IDAMP               0             x 10-3  
       SCF_EXPORDE          IRPPOR              6               ***   
       SCF_EXPSTAR          IRPPLS              8               ***   
       SCF_EXTRAPO          IRPP           ON          [  1]    ***   
       SCF_MAXCYC           ISCFCY            150              cycles 
       SCF_NOSTOP           ISCFST         OFF         [  0]    ***   
       SCF_PRINT            ISCFPR              0               ***   
       SCF_PROG             ISCFPR         SCF         [  0]    ***   
       SD_FIELD             IFINSD              0             x 10-6  
       SOPERT               IPERSO         OFF         [  0]    ***   
       SPHERICAL            IDFGHI         ON          [  1]    ***   
       SPINORBIT            ISOCAL         OFF         [  0]    ***   
       SPINROTATIO          ISRCON         OFF         [  0]    ***   
       SPIN_FLIP            ISPFLP         OFF         [  0]    ***   
       SPIN_ORBIT           ISPORB         OFF         [  0]    ***   
       SPIN_SCAL            ISCSMP         OFF         [  0]    ***   
       STEEPSCALE           ISTPSC              1000          x 10-3  
       SUBGROUP             ISUBGP         DEFAULT     [  0]    ***   
       SUBGRPAXIS           ISBXYZ         X           [  0]    ***   
       SYMMETRY             ISYM           ON          [  0]    ***   
       SYM_CHECK            ISYMCK         OVERRIDE    [  1]    ***   
       T3_EXTRAPOL          IT3EXT         OFF         [  0]    ***   
       T4_EXTRAPOL          IT4EXP         OFF         [  0]    ***   
       TAMP_SUM             IEVERY              5               ***   
       TESTSUITE            ITESTS         OFF         [  0]    ***   
       THERMOCH             ITHERM         OFF         [  0]    ***   
       TOL_CHOLESK          ITOLCH          10D-  4             ***   
       TRANGRAD             IRESRM         OFF         [  0]    ***   
       TRANS_INV            ITRAIN         IGNORE      [  1]    ***   
       TREAT_PERT           ITREAT         SIMULTANEOUS[  0]    ***   
       TRIP_ALGORI          ITRALG         NORMAL      [  0]    ***   
       UIJ_THRESHO          IUIJTH              1               ***   
       UNITS                IUNITS         ANGSTROM    [  0]    ***   
       UNOS                 IUNOS          OFF         [  0]    ***   
       UPDATE_HESS          IHUPDT         ON          [  1]    ***   
       VIBPHASE             ISETPH         STANDARD    [  0]    ***   
       VIBRATION            IVIB           ANALYTIC    [  1]    ***   
       VIB_ALGORIT          IGEALG         STANDARD    [  0]    ***   
       VNATORB              IVNORB         OFF         [  0]    ***   
       VTRAN                IVTRAN         FULL/PARTIAL[  0]    ***   
       XFIELD               IXEFLD              0             x 10-6  
       XFORM_TOL            IXFTOL          10D- 11             ***   
       YFIELD               IYEFLD              0             x 10-6  
       ZFIELD               IZEFLD              0             x 10-6  
       ZSCALE_EXP           IZEXPS         OFF         [  0]    ***   
    -------------------------------------------------------------------
   3 entries found in Z-matrix 
   Job Title : Hypochlorous acid DBOC calculation                                              
   There are  3 unique internal coordinates.
   Of these,  0 will be optimized.
   User supplied Z-matrix: 
--------------------------------------------------------------------------------
       SYMBOL    BOND      LENGTH    ANGLE     ANGLE     DIHED     ANGLE
                  TO      (ANGST)    WRT      (DEG)      WRT      (DEG)
--------------------------------------------------------------------------------
        O    
        H          1         ROH  
        CL         1         ROCL       2        A    
                  *Initial values for internal coordinates* 
                      Name             Value
                        ROH             1.1500000000
                        ROCL            1.6830000000
                        A             107.0000000000
--------------------------------------------------------------------------------
   Rotational constants (in cm-1): 
          0.4889283316             0.5052475558            15.1373522088
   Rotational constants (in MHz): 
      14657.7046864699         15146.9427886854        453806.4662052786
********************************************************************************
   The full molecular point group is C s .
   The largest Abelian subgroup of the full molecular point group is C s .
   The computational point group is C s .
********************************************************************************
--------------------------------------------------------------------------------
   Analysis of internal coordinates specified by Z-matrix 
--------------------------------------------------------------------------------
   *The nuclear repulsion energy is   50.355536068373596 a.u.
   *There are   3 degrees of freedom within the tot. symm. molecular subspace.
   *Z-matrix requests optimization of   0 coordinates.
   *The optimization is constrained.
   *The following   3 parameters can have non-zero 
    derivatives within the totally symmetric subspace:
             A    [ 3]  ROH  [ 1]  ROCL [ 2]
   *The following   0 parameters are to be optimized:

   *The following coordinates must be varied in an  unconstrained optimization.
             A    [ 3]  ROH  [ 1]  ROCL [ 2]
--------------------------------------------------------------------------------


 ----------------------------------------------------------------
         Coordinates used in calculation (QCOMP) 
 ----------------------------------------------------------------
 Z-matrix   Atomic            Coordinates (in bohr)
  Symbol    Number           X              Y              Z
 ----------------------------------------------------------------
     O         8        -2.12288136     0.14729060    -0.00000000
     H         1        -2.86201154    -1.89633896     0.00000000
     CL       17         1.05350076    -0.01271768     0.00000000
 ----------------------------------------------------------------
 
   Interatomic distance matrix (Angstroms) 
 
                 O             H             CL   
                [ 1]        [ 2]        [ 3]
  O    [ 1]     0.00000
  H    [ 2]     1.15000     0.00000
  CL   [ 3]     1.68300     2.29929     0.00000
 rotcon2
   Rotational constants (in cm-1): 
         15.1373522088             0.5052475558             0.4889283316
   Rotational constants (in MHz): 
     453806.4662052803         15146.9427886854         14657.7046864699
  ECPDATA file not present.   Using default ECPDATA. 
  @GTFLGS-I, Hessian will be transformed to curvilinear coordinates.
  There are  157 basis functions.
 @CHECKOUT-I, Total execution time (CPU/WALL):        0.18/       0.28 seconds.
--executable xjoda finished with status     0 in        0.33 seconds (walltime).
 --invoking executable--
/home/asmola/.local/bin/xvmol
 SERIAL VERSION OF MOLECULE STARTED
********************************************************************************
                    INPUT FROM MOL FILE
********************************************************************************
INTGRL        1    0    1    0    0    0    0    0    0                         
         *** CFOUR Program System (Release V0.1) ***                            
Hypochlorous acid DBOC calculation                                              
    3    1 Z          0.10E-08              0    0                              
   9999.00      3.00                                                            
          8.00000000    1    4    1    1    1    1                              
O #1  -2.122881364405079   0.147290600694340  -0.000000000000000                
   13    7                                                                      
   15330.0000000000       5.080000000000000E-004 -1.150000000000000E-004        
  0.000000000000000E+000  0.000000000000000E+000  0.000000000000000E+000        
  0.000000000000000E+000  0.000000000000000E+000                                
   2299.00000000000       3.929000000000000E-003 -8.950000000000000E-004        
  0.000000000000000E+000  0.000000000000000E+000  0.000000000000000E+000        
  0.000000000000000E+000  0.000000000000000E+000                                
   522.400000000000       2.024300000000000E-002 -4.636000000000000E-003        
  0.000000000000000E+000  0.000000000000000E+000  0.000000000000000E+000        
  0.000000000000000E+000  0.000000000000000E+000                                
   147.300000000000       7.918100000000000E-002 -1.872400000000000E-002        
  0.000000000000000E+000  0.000000000000000E+000  0.000000000000000E+000        
  0.000000000000000E+000  0.000000000000000E+000                                
   47.5500000000000       0.230687000000000      -5.846300000000000E-002        
  0.000000000000000E+000  0.000000000000000E+000  0.000000000000000E+000        
  0.000000000000000E+000  0.000000000000000E+000                                
   16.7600000000000       0.433118000000000      -0.136463000000000             
  0.000000000000000E+000  0.000000000000000E+000  0.000000000000000E+000        
  0.000000000000000E+000  0.000000000000000E+000                                
   6.20700000000000       0.350260000000000      -0.175740000000000             
  0.000000000000000E+000  0.000000000000000E+000  0.000000000000000E+000        
  0.000000000000000E+000  0.000000000000000E+000                                
   1.75200000000000       4.272800000000000E-002  0.160934000000000             
   1.00000000000000       0.000000000000000E+000  0.000000000000000E+000        
  0.000000000000000E+000  0.000000000000000E+000                                
  0.688200000000000      -8.154000000000000E-003  0.603418000000000             
  0.000000000000000E+000  0.000000000000000E+000  0.000000000000000E+000        
  0.000000000000000E+000  0.000000000000000E+000                                
  0.238400000000000       2.381000000000000E-003  0.378765000000000             
  0.000000000000000E+000   1.00000000000000       0.000000000000000E+000        
  0.000000000000000E+000  0.000000000000000E+000                                
   7.84500000000000       0.000000000000000E+000  0.000000000000000E+000        
  0.000000000000000E+000  0.000000000000000E+000   1.00000000000000             
  0.000000000000000E+000  0.000000000000000E+000                                
   21.0320000000000       0.000000000000000E+000  0.000000000000000E+000        
  0.000000000000000E+000  0.000000000000000E+000  0.000000000000000E+000        
   1.00000000000000       0.000000000000000E+000                                
  7.376000000000001E-002  0.000000000000000E+000  0.000000000000000E+000        
  0.000000000000000E+000  0.000000000000000E+000  0.000000000000000E+000        
  0.000000000000000E+000   1.00000000000000                                     
    8    6                                                                      
   34.4600000000000       1.592800000000000E-002  0.000000000000000E+000        
  0.000000000000000E+000  0.000000000000000E+000  0.000000000000000E+000        
  0.000000000000000E+000                                                        
   7.74900000000000       9.974000000000000E-002  0.000000000000000E+000        
  0.000000000000000E+000  0.000000000000000E+000  0.000000000000000E+000        
  0.000000000000000E+000                                                        
   2.28000000000000       0.310492000000000       0.000000000000000E+000        
  0.000000000000000E+000  0.000000000000000E+000  0.000000000000000E+000        
  0.000000000000000E+000                                                        
  0.715600000000000       0.491026000000000        1.00000000000000             
  0.000000000000000E+000  0.000000000000000E+000  0.000000000000000E+000        
  0.000000000000000E+000                                                        
  0.214000000000000       0.336337000000000       0.000000000000000E+000        
   1.00000000000000       0.000000000000000E+000  0.000000000000000E+000        
  0.000000000000000E+000                                                        
   15.1590000000000       0.000000000000000E+000  0.000000000000000E+000        
  0.000000000000000E+000   1.00000000000000       0.000000000000000E+000        
  0.000000000000000E+000                                                        
   57.4370000000000       0.000000000000000E+000  0.000000000000000E+000        
  0.000000000000000E+000  0.000000000000000E+000   1.00000000000000             
  0.000000000000000E+000                                                        
  5.974000000000000E-002  0.000000000000000E+000  0.000000000000000E+000        
  0.000000000000000E+000  0.000000000000000E+000  0.000000000000000E+000        
   1.00000000000000                                                             
    4    4                                                                      
   2.31400000000000        1.00000000000000       0.000000000000000E+000        
  0.000000000000000E+000  0.000000000000000E+000                                
  0.645000000000000       0.000000000000000E+000   1.00000000000000             
  0.000000000000000E+000  0.000000000000000E+000                                
   15.8580000000000       0.000000000000000E+000  0.000000000000000E+000        
   1.00000000000000       0.000000000000000E+000                                
  0.214000000000000       0.000000000000000E+000  0.000000000000000E+000        
  0.000000000000000E+000   1.00000000000000                                     
    2    2                                                                      
   1.42800000000000        1.00000000000000       0.000000000000000E+000        
  0.500000000000000       0.000000000000000E+000   1.00000000000000             
          1.00000000    1    3    1    1    1                                   
H #2  -2.862011536107502  -1.896338964890828   0.000000000000002                
    6    4                                                                      
   33.8700000000000       6.068000000000000E-003  0.000000000000000E+000        
  0.000000000000000E+000  0.000000000000000E+000                                
   5.09500000000000       4.530800000000000E-002  0.000000000000000E+000        
  0.000000000000000E+000  0.000000000000000E+000                                
   1.15900000000000       0.202822000000000       0.000000000000000E+000        
  0.000000000000000E+000  0.000000000000000E+000                                
  0.325800000000000       0.503903000000000        1.00000000000000             
  0.000000000000000E+000  0.000000000000000E+000                                
  0.102700000000000       0.383421000000000       0.000000000000000E+000        
   1.00000000000000       0.000000000000000E+000                                
  2.526000000000000E-002  0.000000000000000E+000  0.000000000000000E+000        
  0.000000000000000E+000   1.00000000000000                                     
    3    3                                                                      
   1.40700000000000        1.00000000000000       0.000000000000000E+000        
  0.000000000000000E+000                                                        
  0.388000000000000       0.000000000000000E+000   1.00000000000000             
  0.000000000000000E+000                                                        
  0.102000000000000       0.000000000000000E+000  0.000000000000000E+000        
   1.00000000000000                                                             
    2    2                                                                      
   1.05700000000000        1.00000000000000       0.000000000000000E+000        
  0.247000000000000       0.000000000000000E+000   1.00000000000000             
         17.00000000    1    4    1    1    1    1                              
CL#3   1.053500764344539  -0.012717680611162   0.000000000000000                
   18    8                                                                      
   456100.000000000       4.930000000000000E-005 -1.380000000000000E-005        
  4.200000000000000E-006  0.000000000000000E+000  0.000000000000000E+000        
  0.000000000000000E+000  0.000000000000000E+000  0.000000000000000E+000        
   68330.0000000000       3.830000000000000E-004 -1.073000000000000E-004        
  3.240000000000000E-005  0.000000000000000E+000  0.000000000000000E+000        
  0.000000000000000E+000  0.000000000000000E+000  0.000000000000000E+000        
   15550.0000000000       2.008500000000000E-003 -5.651000000000000E-004        
  1.711000000000000E-004  0.000000000000000E+000  0.000000000000000E+000        
  0.000000000000000E+000  0.000000000000000E+000  0.000000000000000E+000        
   4405.00000000000       8.385600000000000E-003 -2.361400000000000E-003        
  7.142000000000000E-004  0.000000000000000E+000  0.000000000000000E+000        
  0.000000000000000E+000  0.000000000000000E+000  0.000000000000000E+000        
   1439.00000000000       2.947030000000000E-002 -8.458900000000000E-003        
  2.567000000000000E-003  0.000000000000000E+000  0.000000000000000E+000        
  0.000000000000000E+000  0.000000000000000E+000  0.000000000000000E+000        
   520.400000000000       8.783249999999999E-002 -2.596380000000000E-002        
  7.885500000000000E-003  0.000000000000000E+000  0.000000000000000E+000        
  0.000000000000000E+000  0.000000000000000E+000  0.000000000000000E+000        
   203.100000000000       0.211473000000000      -6.863619999999999E-002        
  2.108670000000000E-002  0.000000000000000E+000  0.000000000000000E+000        
  0.000000000000000E+000  0.000000000000000E+000  0.000000000000000E+000        
   83.9600000000000       0.365364000000000      -0.141874000000000             
  4.422640000000000E-002  0.000000000000000E+000  0.000000000000000E+000        
  0.000000000000000E+000  0.000000000000000E+000  0.000000000000000E+000        
   36.2000000000000       0.340884000000000      -0.199319000000000             
  6.516700000000000E-002  0.000000000000000E+000  0.000000000000000E+000        
  0.000000000000000E+000  0.000000000000000E+000  0.000000000000000E+000        
   15.8300000000000       0.102133000000000      -1.956620000000000E-002        
  6.030100000000000E-003  0.000000000000000E+000  0.000000000000000E+000        
  0.000000000000000E+000  0.000000000000000E+000  0.000000000000000E+000        
   6.33400000000000       3.116800000000000E-003  0.499741000000000             
 -0.206495000000000       0.000000000000000E+000  0.000000000000000E+000        
  0.000000000000000E+000  0.000000000000000E+000  0.000000000000000E+000        
   2.69400000000000       1.057500000000000E-003  0.563736000000000             
 -0.405871000000000       0.000000000000000E+000  0.000000000000000E+000        
  0.000000000000000E+000  0.000000000000000E+000  0.000000000000000E+000        
  0.976800000000000      -3.780000000000000E-004  7.903250000000001E-002        
  7.595580000000000E-002   1.00000000000000       0.000000000000000E+000        
  0.000000000000000E+000  0.000000000000000E+000  0.000000000000000E+000        
  0.431300000000000       1.561000000000000E-004 -8.350900000000000E-003        
  0.725661000000000       0.000000000000000E+000  0.000000000000000E+000        
  0.000000000000000E+000  0.000000000000000E+000  0.000000000000000E+000        
  0.162500000000000      -5.140000000000000E-005  2.324600000000000E-003        
  0.394423000000000       0.000000000000000E+000   1.00000000000000             
  0.000000000000000E+000  0.000000000000000E+000  0.000000000000000E+000        
   15.0640000000000       0.000000000000000E+000  0.000000000000000E+000        
  0.000000000000000E+000  0.000000000000000E+000  0.000000000000000E+000        
   1.00000000000000       0.000000000000000E+000  0.000000000000000E+000        
   2.87400000000000       0.000000000000000E+000  0.000000000000000E+000        
  0.000000000000000E+000  0.000000000000000E+000  0.000000000000000E+000        
  0.000000000000000E+000   1.00000000000000       0.000000000000000E+000        
  5.910000000000000E-002  0.000000000000000E+000  0.000000000000000E+000        
  0.000000000000000E+000  0.000000000000000E+000  0.000000000000000E+000        
  0.000000000000000E+000  0.000000000000000E+000   1.00000000000000             
   12    7                                                                      
   663.300000000000       2.404500000000000E-003 -6.521000000000000E-004        
  0.000000000000000E+000  0.000000000000000E+000  0.000000000000000E+000        
  0.000000000000000E+000  0.000000000000000E+000                                
   156.800000000000       1.921480000000000E-002 -5.194500000000000E-003        
  0.000000000000000E+000  0.000000000000000E+000  0.000000000000000E+000        
  0.000000000000000E+000  0.000000000000000E+000                                
   49.9800000000000       8.850970000000000E-002 -2.469380000000000E-002        
  0.000000000000000E+000  0.000000000000000E+000  0.000000000000000E+000        
  0.000000000000000E+000  0.000000000000000E+000                                
   18.4200000000000       0.256020000000000      -7.281670000000000E-002        
  0.000000000000000E+000  0.000000000000000E+000  0.000000000000000E+000        
  0.000000000000000E+000  0.000000000000000E+000                                
   7.24000000000000       0.436927000000000      -0.134030000000000             
  0.000000000000000E+000  0.000000000000000E+000  0.000000000000000E+000        
  0.000000000000000E+000  0.000000000000000E+000                                
   2.92200000000000       0.350334000000000      -9.477420000000000E-002        
  0.000000000000000E+000  0.000000000000000E+000  0.000000000000000E+000        
  0.000000000000000E+000  0.000000000000000E+000                                
   1.02200000000000       5.854950000000000E-002  0.262289000000000             
   1.00000000000000       0.000000000000000E+000  0.000000000000000E+000        
  0.000000000000000E+000  0.000000000000000E+000                                
  0.381800000000000      -4.584200000000000E-003  0.564667000000000             
  0.000000000000000E+000  0.000000000000000E+000  0.000000000000000E+000        
  0.000000000000000E+000  0.000000000000000E+000                                
  0.130100000000000       2.269700000000000E-003  0.341250000000000             
  0.000000000000000E+000   1.00000000000000       0.000000000000000E+000        
  0.000000000000000E+000  0.000000000000000E+000                                
   9.48000000000000       0.000000000000000E+000  0.000000000000000E+000        
  0.000000000000000E+000  0.000000000000000E+000   1.00000000000000             
  0.000000000000000E+000  0.000000000000000E+000                                
   3.66800000000000       0.000000000000000E+000  0.000000000000000E+000        
  0.000000000000000E+000  0.000000000000000E+000  0.000000000000000E+000        
   1.00000000000000       0.000000000000000E+000                                
  4.190000000000000E-002  0.000000000000000E+000  0.000000000000000E+000        
  0.000000000000000E+000  0.000000000000000E+000  0.000000000000000E+000        
  0.000000000000000E+000   1.00000000000000                                     
    5    5                                                                      
   1.04600000000000        1.00000000000000       0.000000000000000E+000        
  0.000000000000000E+000  0.000000000000000E+000  0.000000000000000E+000        
  0.344000000000000       0.000000000000000E+000   1.00000000000000             
  0.000000000000000E+000  0.000000000000000E+000  0.000000000000000E+000        
   17.9570000000000       0.000000000000000E+000  0.000000000000000E+000        
   1.00000000000000       0.000000000000000E+000  0.000000000000000E+000        
   5.76000000000000       0.000000000000000E+000  0.000000000000000E+000        
  0.000000000000000E+000   1.00000000000000       0.000000000000000E+000        
  0.135000000000000       0.000000000000000E+000  0.000000000000000E+000        
  0.000000000000000E+000  0.000000000000000E+000   1.00000000000000             
    3    3                                                                      
  0.706000000000000        1.00000000000000       0.000000000000000E+000        
  0.000000000000000E+000                                                        
   11.7790000000000       0.000000000000000E+000   1.00000000000000             
  0.000000000000000E+000                                                        
  0.312000000000000       0.000000000000000E+000  0.000000000000000E+000        
   1.00000000000000                                                             
FINISH                                                                          
 
********************************************************************************
 ONE- AND TWO-ELECTRON INTEGRALS OVER SYMMETRY-ADAPTED AOS ARE CALCULATED.

  SPHERICAL HARMONICS ARE USED.
  
  INTEGRALS LESS THAN  0.10E-13 ARE NEGLECTED.

  NUCLEAR REPULSION ENERGY :   50.3555360684 A.U.
  @MOLECU-I, ONE ELECTRON INTEGRALS (CPU/WALL):        0.04/       0.05 SECONDS.
  @TWOEL-I,   14237218 INTEGRALS OF SYMMETRY TYPE  I I I I
  @TWOEL-I,   13460679 INTEGRALS OF SYMMETRY TYPE  I J I J
  @TWOEL-I,    6948203 INTEGRALS OF SYMMETRY TYPE  I I J J
  @TWOEL-I, TOTAL NUMBER OF 2-E INTEGRALS   34646100.
  @MOLECU-I, TWO ELECTRON INTEGRALS (CPU/WALL):       62.36/       9.61 SECONDS.
 @CHECKOUT-I, Total execution time (CPU/WALL):       62.42/       9.68 seconds.

Running with 14 threads/proc

--executable xvmol finished with status     0 in        9.72 seconds (walltime).
 --invoking executable--
/home/asmola/.local/bin/xvmol2ja
 @GETMEM-I,  Allocated    3814 MB of main memory.
 @CHECKOUT-I, Total execution time (CPU/WALL):        0.09/       0.02 seconds.
--executable xvmol2ja finished with status     0 in        0.06 seconds (walltime).
 --invoking executable--
/home/asmola/.local/bin/xvscf
  There are  157 functions in the AO basis.

  There are 2 irreducible representations.

       Irrep        # of functions
         1                104
         2                 53


  Parameters for SCF calculation: 
        SCF reference function:  RHF  
  Maximum number of iterations:  150
     Full symmetry point group: C s 
     Computational point group: C s 
        Initial density matrix: MOREAD                 
     SCF convergence tolerance: 10**(-10)
  DIIS convergence acceleration:  ON
          Latest start for DIIS:   8
                     DIIS order:   6

  Memory information:    1209746 words required.
  Fock matrices are constructed from AO integral file.
 @GETMEM-I,  Allocated       9 MB of main memory.
  Initialization and symmetry analysis required      0.001 seconds.

  @INITGES-I, Occupancies from core Hamiltonian:

          Alpha population by irrep:  10    3
           Beta population by irrep:  10    3


 total no. of electrons in initial guess :  0.000000000000000E+000
  --------------------------------------------------------------------
  Iteration         Total Energy            Largest Density Difference
  --------------------------------------------------------------------
       0            50.355536068373596              0.0000000000D+00
   current occupation vector 
    10  3
    10  3
       1          -365.677894962503956              0.1326073158D+02
   current occupation vector 
    10  3
    10  3
       2          -340.475869808919811              0.1324196471D+02
   current occupation vector 
    10  3
    10  3
       3          -421.599098135074996              0.1072957144D+02
   current occupation vector 
    10  3
    10  3
       4          -338.519058682174659              0.1073527007D+02
   current occupation vector 
    10  3
    10  3
       5          -421.434394916757697              0.1069293331D+02
   current occupation vector 
    10  3
    10  3
       6          -338.473487929732642              0.1069302047D+02
   current occupation vector 
    10  3
    10  3
       7          -421.429475825693430              0.1069179621D+02
   current occupation vector 
    10  3
    10  3
       8          -338.472347317583512              0.1069179841D+02
   current occupation vector 
    10  3
    10  3
       9          -445.152435492388804              0.8401064687D+01
   current occupation vector 
    10  3
    10  3
      10          -463.795026338727780              0.2061795065D+01
   current occupation vector 
    10  3
    10  3
      11          -469.026790278947033              0.5990651470D+00
   current occupation vector 
    10  3
    10  3
      12          -468.461245734239014              0.1169523733D+00
   current occupation vector 
    10  3
    10  3
      13          -479.394729578596639              0.1436641800D+01
   current occupation vector 
    10  3
    10  3
      14          -484.717014976462337              0.6702427192D+00
   current occupation vector 
    10  3
    10  3
      15          -507.668159789810602              0.7481894099D+01
   current occupation vector 
    10  3
    10  3
      16          -521.507020532052593              0.7481353315D+01
   current occupation vector 
    11  2
    11  2
      17          -527.344038783804876              0.4033044698D+01
   current occupation vector 
    11  2
    11  2
      18          -533.787917398378909              0.2650192147D+01
   current occupation vector 
    10  3
    10  3
      19          -534.735778229556786              0.7923009035D+00
   current occupation vector 
    10  3
    10  3
      20          -534.881362468703628              0.3055501509D+00
   current occupation vector 
    10  3
    10  3
      21          -534.892559956936680              0.1405249449D+00
   current occupation vector 
    10  3
    10  3
      22          -534.894318720447359              0.4234865590D-01
   current occupation vector 
    10  3
    10  3
      23          -534.894760345256941              0.2865018474D-01
   current occupation vector 
    10  3
    10  3
      24          -534.894806913171578              0.8988237695D-02
   current occupation vector 
    10  3
    10  3
      25          -534.894816675494667              0.4488573164D-02
   current occupation vector 
    10  3
    10  3
      26          -534.894817430768512              0.9491994485D-03
   current occupation vector 
    10  3
    10  3
      27          -534.894817529763372              0.4162379492D-03
   current occupation vector 
    10  3
    10  3
      28          -534.894817551026676              0.2573485227D-03
   current occupation vector 
    10  3
    10  3
      29          -534.894817551786559              0.4687672409D-04
   current occupation vector 
    10  3
    10  3
      30          -534.894817551824076              0.9777126384D-05
   current occupation vector 
    10  3
    10  3
      31          -534.894817551828510              0.2450085231D-05
   current occupation vector 
    10  3
    10  3
      32          -534.894817551833967              0.6973163561D-06
   current occupation vector 
    10  3
    10  3
      33          -534.894817551824758              0.1826721340D-06
   current occupation vector 
    10  3
    10  3
      34          -534.894817551831352              0.9485594354D-07
   current occupation vector 
    10  3
    10  3
      35          -534.894817551830101              0.3413418792D-07
   current occupation vector 
    10  3
    10  3
      36          -534.894817551831807              0.1210000711D-07
   current occupation vector 
    10  3
    10  3
      37          -534.894817551824076              0.7143762554D-08
   current occupation vector 
    10  3
    10  3
      38          -534.894817551830556              0.2298138388D-08
   current occupation vector 
    10  3
    10  3
      39          -534.894817551828623              0.1162499499D-08
   current occupation vector 
    10  3
    10  3
      40          -534.894817551826122              0.2655711207D-09
   current occupation vector 
    10  3
    10  3

  SCF has converged.

 Density matrix saved to file den.dat
 total electron number:   26.0000000000001     
     E(SCF)=      -534.894817551827714              0.9985524907D-10

  Eigenvector printing suppressed.

 @PUTMOS-I, Writing converged MOs to NEWMOS. 
 @PUTMOS-I, Symmetry   1 Full Blocks 26 Partial Blocksize   0
 @PUTMOS-I, Symmetry   2 Full Blocks 13 Partial Blocksize   1
 @PUTFOCK-I, Writing converged Fock matrix to NEWFOCK. 
 @PUTFOCK-I, Symmetry   1 Full Blocks 26 Partial Blocksize   0
 @PUTFOCK-I, Symmetry   2 Full Blocks 13 Partial Blocksize   1


 
  ORBITAL EIGENVALUES (ALPHA)  (1H = 27.2113834 eV)

       MO #        E(hartree)               E(eV)           FULLSYM    COMPSYM
       ----   --------------------   --------------------   -------   ---------
    1     1        -104.8868817037       -2854.1171516695     A'        A'  (1)
    2     2         -20.6524095736        -561.9806350416     A'        A'  (1)
    3     3         -10.6068342219        -288.6266326717     A'        A'  (1)
    4     4          -8.0735543036        -219.6925815553     A'        A'  (1)
    5     5          -8.0712462963        -219.6297774838     A'        A'  (1)
    6   105          -8.0710938210        -219.6256284202     A''       A'' (2)
    7     6          -1.3812805869         -37.5865556333     A'        A'  (1)
    8     7          -1.0455227911         -28.4501215226     A'        A'  (1)
    9     8          -0.6771098981         -18.4250970398     A'        A'  (1)
   10   106          -0.6082004788         -16.5499764134     A''       A'' (2)
   11     9          -0.5975430547         -16.2599731584     A'        A'  (1)
   12    10          -0.4581908392         -12.4680065961     A'        A'  (1)
   13   107          -0.4383656055         -11.9285345618     A''       A'' (2)
  +++++++++++++++++++++++++++++++++++++++++++++++++++++++++++++++++++++++++++++
   14    11           0.0228997766           0.6231346005     A'        A'  (1)
   15    12           0.0628164934           1.7093236861     A'        A'  (1)
   16    13           0.1095272097           2.9803868966     A'        A'  (1)
   17   108           0.1167440696           3.1767676372     A''       A'' (2)
   18    14           0.1345712566           3.6618700569     A'        A'  (1)
   19    15           0.1561701414           4.2496055928     A'        A'  (1)
   20    16           0.1705657496           4.6413300076     A'        A'  (1)
   21    17           0.1746102108           4.7513853910     A'        A'  (1)
   22   109           0.1912024009           5.2028818385     A''       A'' (2)
   23    18           0.2322924295           6.3209983612     A'        A'  (1)
   24   110           0.2552981783           6.9470166102     A''       A'' (2)
   25    19           0.2992391048           8.1427100088     A'        A'  (1)
   26    20           0.3266229853           8.8878632800     A'        A'  (1)
   27    21           0.3745828998          10.1929189010     A'        A'  (1)
   28   111           0.3819868236          10.3943899108     A''       A'' (2)
   29    22           0.3913529345          10.6492547451     A'        A'  (1)
   30   112           0.4224944232          11.4966577349     A''       A'' (2)
   31    23           0.4526853146          12.3181936563     A'        A'  (1)
   32    24           0.5050892587          13.7441774692     A'        A'  (1)
   33    25           0.6003410381          16.3361101583     A'        A'  (1)
   34   113           0.6147264642          16.7275575044     A''       A'' (2)
   35    26           0.6754358542          18.3795439903     A'        A'  (1)
   36    27           0.6941835283          18.8896941390     A'        A'  (1)
   37   114           0.7234243179          19.6853764745     A''       A'' (2)
   38    28           0.7334451564          19.9580573537     A'        A'  (1)
   39    29           0.7680734075          20.9003399715     A'        A'  (1)
   40   115           0.7703476996          20.9622266060     A''       A'' (2)
   41    30           0.8559192903          23.2907479686     A'        A'  (1)
   42    31           0.8630356285          23.4843933737     A'        A'  (1)
   43   116           0.8741051098          23.7856092746     A''       A'' (2)
   44   117           0.9033959751          24.5826542406     A''       A'' (2)
   45    32           0.9056115518          24.6429431475     A'        A'  (1)
   46   118           0.9243363556          25.1524709623     A''       A'' (2)
   47    33           0.9275228951          25.2391811110     A'        A'  (1)
   48    34           0.9586655470          26.0866157525     A'        A'  (1)
   49   119           0.9833641536          26.7586990052     A''       A'' (2)
   50    35           0.9959124444          27.1001553568     A'        A'  (1)
   51    36           1.0165045976          27.6604963343     A'        A'  (1)
   52    37           1.1185077117          30.4361421796     A'        A'  (1)
   53   120           1.1318867973          30.8002056070     A''       A'' (2)
   54   121           1.1999157543          32.6513676381     A''       A'' (2)
   55    38           1.2041408006          32.7663369930     A'        A'  (1)
   56    39           1.2410267393          33.7700544125     A'        A'  (1)
   57    40           1.3070580062          35.5668565338     A'        A'  (1)
   58   122           1.3859282344          37.7130245513     A''       A'' (2)
   59    41           1.4159497224          38.5299507720     A'        A'  (1)
   60   123           1.4672275363          39.9252910254     A''       A'' (2)
   61   124           1.5274650068          41.5644359314     A''       A'' (2)
   62    42           1.5704227004          42.7333742000     A'        A'  (1)
   63    43           1.6444930543          44.7489310001     A'        A'  (1)
   64    44           1.7244400666          46.9243998021     A'        A'  (1)
   65    45           1.7612103134          47.9249690851     A'        A'  (1)
   66    46           1.8218310339          49.5745427534     A'        A'  (1)
   67   125           2.1784537156          59.2787392743     A''       A'' (2)
   68   126           2.2250271850          60.5460678054     A''       A'' (2)
   69    47           2.2516800779          61.2713298926     A'        A'  (1)
   70    48           2.2734395201          61.8634344178     A'        A'  (1)
   71    49           2.3101066072          62.8611965831     A'        A'  (1)
   72   127           2.3174676457          63.0615006234     A''       A'' (2)
   73    50           2.3501096453          63.9497345895     A'        A'  (1)
   74    51           2.3898291836          65.0305581759     A'        A'  (1)
   75    52           2.4487284753          66.6332893841     A'        A'  (1)
   76   128           2.4500216436          66.6684782816     A''       A'' (2)
   77   129           2.4757689963          67.3690993683     A''       A'' (2)
   78   130           2.4818790475          67.5353623148     A''       A'' (2)
   79    53           2.5002005342          68.0339153134     A'        A'  (1)
   80   131           2.6883696996          73.1542586162     A''       A'' (2)
   81    54           2.6966826951          73.3804667241     A'        A'  (1)
   82    55           2.7248648163          74.1473412284     A'        A'  (1)
   83   132           2.8959185015          78.8019486384     A''       A'' (2)
   84    56           2.9308949537          79.7537062908     A'        A'  (1)
   85    57           2.9634049282          80.6383476711     A'        A'  (1)
   86   133           3.0614417554          83.3060653632     A''       A'' (2)
   87    58           3.0708651210          83.5624881761     A'        A'  (1)
   88   134           3.1253005596          85.0437517668     A''       A'' (2)
   89    59           3.1282960944          85.1252644124     A'        A'  (1)
   90    60           3.2401421097          88.1687492167     A'        A'  (1)
   91    61           3.2782622311          89.2060504561     A'        A'  (1)
   92   135           3.3595432321          91.4178189376     A''       A'' (2)
   93    62           3.4499264837          93.8772722502     A'        A'  (1)
   94    63           3.5171482182          95.7064686402     A'        A'  (1)
   95    64           3.8038478037         103.5079609810     A'        A'  (1)
   96   136           3.9838272097         108.4054496038     A''       A'' (2)
   97   137           4.0334887345         109.7568083949     A''       A'' (2)
   98    65           4.1452283379         112.7973975821     A'        A'  (1)
   99    66           4.2793428175         116.4468381073     A'        A'  (1)
  100   138           4.2950368856         116.8738954113     A''       A'' (2)
  101    67           4.5221583421         123.0541844420     A'        A'  (1)
  102    68           4.6592147663         126.7836793475     A'        A'  (1)
  103   139           4.7807403755         130.0905592938     A''       A'' (2)
  104    69           4.8767097418         132.7020185146     A'        A'  (1)
  105    70           5.2084304662         141.7285983284     A'        A'  (1)
  106    71           5.7447657948         156.3230245855     A'        A'  (1)
  107    72           6.2707151304         170.6348336051     A'        A'  (1)
  108   140           6.6216037031         180.1829970886     A''       A'' (2)
  109    73           6.6833117035         181.8621571444     A'        A'  (1)
  110   141           6.7420110721         183.4594481698     A''       A'' (2)
  111    74           6.7721656634         184.2799963156     A'        A'  (1)
  112   142           6.8640028970         186.7790144880     A''       A'' (2)
  113    75           6.9519600203         189.1724494933     A'        A'  (1)
  114   143           7.1408296636         194.3118537709     A''       A'' (2)
  115    76           7.2095955545         196.1830687927     A'        A'  (1)
  116   144           7.2398409708         197.0060884103     A''       A'' (2)
  117    77           7.5640498568         205.8282607095     A'        A'  (1)
  118    78           7.7479401160         210.8321690564     A'        A'  (1)
  119    79           7.9532769832         216.4196692775     A'        A'  (1)
  120   145          10.3529778232         281.7188488789     A''       A'' (2)
  121    80          10.3542041417         281.7522187013     A'        A'  (1)
  122   146          10.3912510364         282.7603159559     A''       A'' (2)
  123    81          10.4409771828         284.1134331909     A'        A'  (1)
  124    82          10.6201520411         288.9890289575     A'        A'  (1)
  125   147          12.6831169442         345.1251578767     A''       A'' (2)
  126    83          12.7357583399         346.5576030760     A'        A'  (1)
  127    84          13.2237656868         359.8369580955     A'        A'  (1)
  128    85          18.2748205082         497.2831474154     A'        A'  (1)
  129   148          26.0925864060         710.0153725904     A''       A'' (2)
  130    86          26.5535739737         722.5594820375     A'        A'  (1)
  131    87          27.2272248545         740.8904544349     A'        A'  (1)
  132    88          28.9492470127         787.7490596045     A'        A'  (1)
  133   149          36.8988489345        1004.0687253744     A''       A'' (2)
  134   150          36.8995067632        1004.0866258043     A''       A'' (2)
  135    89          36.8996570334        1004.0907148643     A'        A'  (1)
  136    90          36.9031733195        1004.1863978741     A'        A'  (1)
  137   151          36.9081025524        1004.3205291187     A''       A'' (2)
  138    91          36.9082889352        1004.3256008542     A'        A'  (1)
  139    92          36.9122682960        1004.4338847673     A'        A'  (1)
  140   152          43.9041568851        1194.6928458533     A''       A'' (2)
  141    93          43.9203339136        1195.1330451800     A'        A'  (1)
  142   153          43.9353747450        1195.5423270079     A''       A'' (2)
  143    94          44.0408886952        1198.4135075609     A'        A'  (1)
  144    95          44.1081746863        1200.2444524627     A'        A'  (1)
  145   154          46.4863011379        1264.9565631105     A''       A'' (2)
  146    96          46.4870234192        1264.9762173839     A'        A'  (1)
  147   155          46.5111063371        1265.6315468959     A''       A'' (2)
  148    97          46.5383450607        1266.3727502482     A'        A'  (1)
  149    98          46.6256814121        1268.7492931905     A'        A'  (1)
  150   156          55.0228308940        1497.2473472105     A''       A'' (2)
  151    99          55.0800980889        1498.8056668073     A'        A'  (1)
  152   100          55.6503498916        1514.3230072436     A'        A'  (1)
  153   101         103.8545138613        2826.0249945012     A'        A'  (1)
  154   157         138.2461055392        3761.8677813851     A''       A'' (2)
  155   102         138.5741644107        3770.7947171135     A'        A'  (1)
  156   103         139.0893380832        3784.8133054353     A'        A'  (1)
  157   104         149.6759710640        4072.8902343886     A'        A'  (1)


  VSCF finished.

 @CHECKOUT-I, Total execution time (CPU/WALL):       69.54/      13.74 seconds.
--executable xvscf finished with status     0 in       13.77 seconds (walltime).
 --invoking executable--
/home/asmola/.local/bin/xvtran
 @GETMEM-I,  Allocated    3814 MB of main memory.
  Full RHF integral transformation
  Transformation of IIII integrals :
  1 pass through the AO integral file was required.
    14237218 AO integrals were read.
    15933126 MO integrals were written to HF2.
  Transformation of IIJJ integrals :
  1 pass through the AO integral file was required.
     6948203 AO integrals were read.
     7813260 MO integrals were written to HF2.
  Transformation of IJIJ integrals :
  1 pass through the AO integral file was required.
    13460679 AO integrals were read.
    15193828 MO integrals were written to HF2.
  Summary of active molecular orbitals: 
------------------------------------------------------------------------
 
  Index      Eigenvalue    Symmetry    Index      Eigenvalue    Symmetry
------------------------------------------------------------------------
     1      -104.8868817        1        80         7.5640499        1
     2       -20.6524096        1        81         7.7479401        1
     3       -10.6068342        1        82         7.9532770        1
     4        -8.0735543        1        83        10.3542041        1
     5        -8.0712463        1        84        10.4409772        1
     6        -1.3812806        1        85        10.6201520        1
     7        -1.0455228        1        86        12.7357583        1
     8        -0.6771099        1        87        13.2237657        1
     9        -0.5975431        1        88        18.2748205        1
    10        -0.4581908        1        89        26.5535740        1
    11        -8.0710938        2        90        27.2272249        1
    12        -0.6082005        2        91        28.9492470        1
    13        -0.4383656        2        92        36.8996570        1
    14         0.0228998        1        93        36.9031733        1
    15         0.0628165        1        94        36.9082889        1
    16         0.1095272        1        95        36.9122683        1
    17         0.1345713        1        96        43.9203339        1
    18         0.1561701        1        97        44.0408887        1
    19         0.1705657        1        98        44.1081747        1
    20         0.1746102        1        99        46.4870234        1
    21         0.2322924        1       100        46.5383451        1
    22         0.2992391        1       101        46.6256814        1
    23         0.3266230        1       102        55.0800981        1
    24         0.3745829        1       103        55.6503499        1
    25         0.3913529        1       104       103.8545139        1
    26         0.4526853        1       105       138.5741644        1
    27         0.5050893        1       106       139.0893381        1
    28         0.6003410        1       107       149.6759711        1
    29         0.6754359        1       108         0.1167441        2
    30         0.6941835        1       109         0.1912024        2
    31         0.7334452        1       110         0.2552982        2
    32         0.7680734        1       111         0.3819868        2
    33         0.8559193        1       112         0.4224944        2
    34         0.8630356        1       113         0.6147265        2
    35         0.9056116        1       114         0.7234243        2
    36         0.9275229        1       115         0.7703477        2
    37         0.9586655        1       116         0.8741051        2
    38         0.9959124        1       117         0.9033960        2
    39         1.0165046        1       118         0.9243364        2
    40         1.1185077        1       119         0.9833642        2
    41         1.2041408        1       120         1.1318868        2
    42         1.2410267        1       121         1.1999158        2
    43         1.3070580        1       122         1.3859282        2
    44         1.4159497        1       123         1.4672275        2
    45         1.5704227        1       124         1.5274650        2
    46         1.6444931        1       125         2.1784537        2
    47         1.7244401        1       126         2.2250272        2
    48         1.7612103        1       127         2.3174676        2
    49         1.8218310        1       128         2.4500216        2
    50         2.2516801        1       129         2.4757690        2
    51         2.2734395        1       130         2.4818790        2
    52         2.3101066        1       131         2.6883697        2
    53         2.3501096        1       132         2.8959185        2
    54         2.3898292        1       133         3.0614418        2
    55         2.4487285        1       134         3.1253006        2
    56         2.5002005        1       135         3.3595432        2
    57         2.6966827        1       136         3.9838272        2
    58         2.7248648        1       137         4.0334887        2
    59         2.9308950        1       138         4.2950369        2
    60         2.9634049        1       139         4.7807404        2
    61         3.0708651        1       140         6.6216037        2
    62         3.1282961        1       141         6.7420111        2
    63         3.2401421        1       142         6.8640029        2
    64         3.2782622        1       143         7.1408297        2
    65         3.4499265        1       144         7.2398410        2
    66         3.5171482        1       145        10.3529778        2
    67         3.8038478        1       146        10.3912510        2
    68         4.1452283        1       147        12.6831169        2
    69         4.2793428        1       148        26.0925864        2
    70         4.5221583        1       149        36.8988489        2
    71         4.6592148        1       150        36.8995068        2
    72         4.8767097        1       151        36.9081026        2
    73         5.2084305        1       152        43.9041569        2
    74         5.7447658        1       153        43.9353747        2
    75         6.2707151        1       154        46.4863011        2
    76         6.6833117        1       155        46.5111063        2
    77         6.7721657        1       156        55.0228309        2
    78         6.9519600        1       157       138.2461055        2
    79         7.2095956        1
------------------------------------------------------------------------
  -104.886881703690       -20.6524095736204       -10.6068342218764     
  -8.07355430357412       -8.07124629627543       -1.38128058690750     
  -1.04552279112027      -0.677109898051188      -0.597543054661515     
 -0.458190839208317       -8.07109382098703      -0.608200478827665     
 -0.438365605543181       2.289977658869757E-002  6.281649341285828E-002
  0.109527209727138       0.134571256559412       0.156170141381357     
  0.170565749612050       0.174610210776645       0.232292429544055     
  0.299239104792383       0.326622985290050       0.374582899780192     
  0.391352934488678       0.452685314643809       0.505089258682239     
  0.600341038091563       0.675435854184329       0.694183528317796     
  0.733445156401678       0.768073407525950       0.855919290327545     
  0.863035628451637       0.905611551800790       0.927522895105919     
  0.958665547026960       0.995912444377409        1.01650459764205     
   1.11850771172445        1.20414080060885        1.24102673929172     
   1.30705800623985        1.41594972242372        1.57042270037664     
   1.64449305433296        1.72444006658251        1.76121031336974     
   1.82183103389835        2.25168007785331        2.27343952008824     
   2.31010660719047        2.35010964527159        2.38982918361703     
   2.44872847530701        2.50020053421352        2.69668269508528     
   2.72486481625839        2.93089495371916        2.96340492821368     
   3.07086512095920        3.12829609436008        3.24014210966982     
   3.27826223109689        3.44992648371670        3.51714821820324     
   3.80384780367422        4.14522833786294        4.27934281750909     
   4.52215834208601        4.65921476625508        4.87670974179974     
   5.20843046621415        5.74476579479793        6.27071513038456     
   6.68331170345427        6.77216566341929        6.95196002027837     
   7.20959555451141        7.56404985677895        7.74794011598696     
   7.95327698324552        10.3542041416849        10.4409771827643     
   10.6201520411308        12.7357583398704        13.2237656868090     
   18.2748205082204        26.5535739736575        27.2272248545413     
   28.9492470127214        36.8996570333962        36.9031733195197     
   36.9082889352168        36.9122682960449        43.9203339136358     
   44.0408886951650        44.1081746862845        46.4870234191721     
   46.5383450606989        46.6256814120862        55.0800980889221     
   55.6503498915670        103.854513861329        138.574164410675     
   139.089338083240        149.675971063956       0.116744069585321     
  0.191202400922581       0.255298178268319       0.381986823602629     
  0.422494423232051       0.614726464233083       0.723424317870302     
  0.770347699630786       0.874105109796706       0.903395975106460     
  0.924336355580529       0.983364153591273        1.13188679730978     
   1.19991575430636        1.38592823440504        1.46722753630353     
   1.52746500684756        2.17845371559795        2.22502718496255     
   2.31746764566800        2.45002164357269        2.47576899630695     
   2.48187904753155        2.68836969957889        2.89591850146195     
   3.06144175540782        3.12530055957567        3.35954323210028     
   3.98382720974895        4.03348873453258        4.29503688560469     
   4.78074037550882        6.62160370312432        6.74201107209338     
   6.86400289696567        7.14082966362062        7.23984097075839     
   10.3529778232051        10.3912510363531        12.6831169442393     
   26.0925864059656        36.8988489344654        36.8995067632003     
   36.9081025523582        43.9041568850651        43.9353747449642     
   46.4863011378713        46.5111063370612        55.0228308940171     
   138.246105539238     
 @CHECKOUT-I, Total execution time (CPU/WALL):       34.38/      18.84 seconds.
--executable xvtran finished with status     0 in       18.90 seconds (walltime).
 --invoking executable--
/home/asmola/.local/bin/xintprc
 @GETMEM-I,  Allocated    3814 MB of main memory.
  Processing integrals for CCSD calculation.
  @GMOIAA-I, Processing MO integrals for spin case AA.
  @GMOIAA-I, Generation of integral list completed.
                      TYPE                NUMBER
                      ----               --------
                      PPPP              27524020
                      PPPH               9932000
                      PPHH                900748
                      PHPH                491140
                      PHHH                 89950
                      HHHH                  2356

                     TOTAL              38940214

  @FORMT2-I, Second-order MP correlation energies:
            ------------------------------------------------
            E(SCF)                  =   -534.894817551828 a.u.
            E2(AA)                  =     -0.108530982645 a.u.
            E2(AB)                  =     -0.636719487539 a.u.
            E2(TOT)                 =     -0.853781452829 a.u.
            Total MP2 energy        =   -535.748599004656 a.u.
            ------------------------------------------------
   Largest T2 amplitudes for spin case AB:
       _       _                 _       _                 _       _
   i   j   a   b             i   j   a   b             i   j   a   b
-----------------------------------------------------------------------------
[  9   9  19  19]-0.02141 [  9   9  15  15]-0.01958 [  8   8  24  24]-0.01943
[  9   9  19  15] 0.01906 [  9   9  15  19] 0.01906 [ 13  13 112 112]-0.01771
[ 10  10  26  26]-0.01562 [  9   9  18  15]-0.01555 [  9   9  15  18]-0.01555
[  9   9  19  18] 0.01554 [  9   9  18  19] 0.01554 [ 13  13 113 113]-0.01540
[ 10  10 117 117]-0.01488 [  9   9  18  18]-0.01455 [ 13  13 117 117]-0.01355
-----------------------------------------------------------------------------
   Norm of T2AB vector (  1799624 symmetry allowed elements):  0.3341592665.
-----------------------------------------------------------------------------
 @CHECKOUT-I, Total execution time (CPU/WALL):        5.81/       7.22 seconds.
--executable xintprc finished with status     0 in        7.35 seconds (walltime).
  calling xvcc 
 --invoking executable--
/home/asmola/.local/bin/xvcc
 @GETMEM-I,  Allocated    3814 MB of main memory.
   CCSD energy will be calculated.
   The total correlation energy is -0.853781452829 a.u.
   The total correlation energy is -0.851427075189 a.u.
  Convergence information after     1 iterations: 
  Largest element of residual vector : -0.12691609E-01.
  Largest element of DIIS residual   : -0.12691609E-01.
   The total correlation energy is -0.866934457278 a.u.
  Convergence information after     2 iterations: 
  Largest element of residual vector : -0.29659783E-02.
  Largest element of DIIS residual   : -0.26062680E-02.
   The total correlation energy is -0.866583417871 a.u.
  Convergence information after     3 iterations: 
  Largest element of residual vector : -0.22422050E-02.
  Largest element of DIIS residual   : -0.13825895E-02.
   The total correlation energy is -0.868140906235 a.u.
  Convergence information after     4 iterations: 
  Largest element of residual vector : -0.34685623E-03.
  Largest element of DIIS residual   : -0.33043378E-03.
   The total correlation energy is -0.868319478103 a.u.
  Convergence information after     5 iterations: 
  Largest element of residual vector : -0.38991467E-03.
  Largest element of DIIS residual   : -0.28564543E-03.
   The total correlation energy is -0.868326305727 a.u.
  Convergence information after     6 iterations: 
  Largest element of residual vector : -0.18164874E-03.
  Largest element of DIIS residual   : -0.13369711E-03.
   The total correlation energy is -0.868329449093 a.u.
  Convergence information after     7 iterations: 
  Largest element of residual vector : -0.12153414E-03.
  Largest element of DIIS residual   : -0.80199808E-04.
   The total correlation energy is -0.868329454465 a.u.
  Convergence information after     8 iterations: 
  Largest element of residual vector : -0.55383794E-04.
  Largest element of DIIS residual   : -0.32384582E-04.
   The total correlation energy is -0.868329254726 a.u.
  Convergence information after     9 iterations: 
  Largest element of residual vector : -0.27293252E-04.
  Largest element of DIIS residual   : -0.14684926E-04.
   The total correlation energy is -0.868330460110 a.u.
  Convergence information after    10 iterations: 
  Largest element of residual vector : -0.12199803E-04.
  Largest element of DIIS residual   : -0.56866266E-05.
   The total correlation energy is -0.868330801889 a.u.
  Convergence information after    11 iterations: 
  Largest element of residual vector : -0.32627046E-05.
  Largest element of DIIS residual   :  0.24849272E-05.
   The total correlation energy is -0.868331073081 a.u.
  Convergence information after    12 iterations: 
  Largest element of residual vector : -0.21518047E-05.
  Largest element of DIIS residual   : -0.11718432E-05.
   The total correlation energy is -0.868331195632 a.u.
  Convergence information after    13 iterations: 
  Largest element of residual vector : -0.63645778E-06.
  Largest element of DIIS residual   : -0.49745439E-06.
   The total correlation energy is -0.868331228635 a.u.
  Convergence information after    14 iterations: 
  Largest element of residual vector : -0.48425681E-06.
  Largest element of DIIS residual   : -0.32302058E-06.
   The total correlation energy is -0.868331237155 a.u.
  Convergence information after    15 iterations: 
  Largest element of residual vector : -0.22372960E-06.
  Largest element of DIIS residual   : -0.14849595E-06.
   The total correlation energy is -0.868331240229 a.u.
  Convergence information after    16 iterations: 
  Largest element of residual vector : -0.14301277E-06.
  Largest element of DIIS residual   : -0.75124135E-07.
   The total correlation energy is -0.868331241265 a.u.
  Convergence information after    17 iterations: 
  Largest element of residual vector : -0.70485286E-07.
  Largest element of DIIS residual   : -0.34102661E-07.
   The total correlation energy is -0.868331241626 a.u.
  Convergence information after    18 iterations: 
  Largest element of residual vector : -0.23061619E-07.
  Largest element of DIIS residual   : -0.16668940E-07.
   The total correlation energy is -0.868331241976 a.u.
  Convergence information after    19 iterations: 
  Largest element of residual vector : -0.14462851E-07.
  Largest element of DIIS residual   : -0.75751920E-08.
   The total correlation energy is -0.868331242231 a.u.
  Convergence information after    20 iterations: 
  Largest element of residual vector :  0.46334960E-08.
  Largest element of DIIS residual   :  0.34553435E-08.
   The total correlation energy is -0.868331242341 a.u.
  Convergence information after    21 iterations: 
  Largest element of residual vector : -0.28866268E-08.
  Largest element of DIIS residual   : -0.18881724E-08.
   The total correlation energy is -0.868331242408 a.u.
  Convergence information after    22 iterations: 
  Largest element of residual vector : -0.11540785E-08.
  Largest element of DIIS residual   : -0.95347921E-09.
   The total correlation energy is -0.868331242414 a.u.
  Convergence information after    23 iterations: 
  Largest element of residual vector : -0.80723451E-09.
  Largest element of DIIS residual   : -0.38725285E-09.
   The total correlation energy is -0.868331242420 a.u.
  Convergence information after    24 iterations: 
  Largest element of residual vector : -0.37384800E-09.
  Largest element of DIIS residual   : -0.26554844E-09.
   The total correlation energy is -0.868331242420 a.u.
  Convergence information after    25 iterations: 
  Largest element of residual vector : -0.18008481E-09.
  Largest element of DIIS residual   : -0.11450206E-09.
   The total correlation energy is -0.868331242421 a.u.
  Convergence information after    26 iterations: 
  Largest element of residual vector : -0.10398222E-09.
  Largest element of DIIS residual   : -0.60239745E-10.
   The total correlation energy is -0.868331242424 a.u.
  Convergence information after    27 iterations: 
  Largest element of residual vector : -0.36652496E-10.
  Largest element of DIIS residual   :  0.25284609E-10.
  Amplitude equations converged in    27iterations.
   The total correlation energy is -0.868331242424 a.u.
   The CC iterations have converged.

   Largest T1 amplitudes for spin case AA:
   i       a                 i       a                 i       a    
-----------------------------------------------------------------------------
[...]
 term  0.468353077030177     
 final tnorm  0.836809581510299     
  norm contr. I: |<0|L dT/dx|0>|^2   0.000000000000000E+000
  norm contr. II: <0|[nabla(1+L)e-T][nabla e^T]|0>  0.468353077030177     
  total norm contribution  0.468353077030177     
 oo  2.199159721026293E-003
 vv  -1.57551939082219     
 vo -2.675290976691247E-002
  Correlated perturbed 1-el contribution to DBOC  -1.60007314086808       cm**-1
  SUM_I |dc_I/dx|^2 contribution to DBOC  0.806495713501732       cm**-1
 
 
  The total diagonal Born-Oppenheimer correction (DBOC) is:      0.0087212076 a.u.
  The total diagonal Born-Oppenheimer correction (DBOC) is:       1914.083827 cm-1
 
 Total CC energy including DBOC  -535.754427586634     
 First-order density matrix is being calculated  (Symmetry block 2, perturbation   3)
 Calculation of the contributions of <pq||rs> to dI(i,j)/dx required   5.5 seconds.
 Calculation of the contributions of <pq||rs> to dI(a,b)/dx required   8.8 seconds.
 Calculation of the contributions of <pq||rs> to dI(i,a)/dx required   5.7 seconds.
 First-order Z-vector equations are solved for 1 perturbation.
 Convergence reached after  22 iterations.
        U*G(pq,rs) contribution is being calculated
             (Symmetry block 2, perturbation   3)

 CCSD contribution to force constants 

        0.0000000000        0.0000000000        0.0000000000
        0.0000000000        0.0000000000        0.0000000000
        0.0000000000        0.0000000000        0.0000000000
        0.0000000000        0.0000000000        0.0000000000
        0.0000000000        0.0000000000        0.0000000000
        0.0000000000        0.0000000000        0.0000000000
        0.0000000000        0.0000000000        0.0000000000
        0.0000000000        0.0000000000        0.0000000000
        0.0000000000        0.0000000000        0.0000000000
        0.0000000000        0.0000000000        0.0000000000
        0.0000000000        0.0000000000        0.0000000000
        0.0000000000        0.0000000000        0.0000000000
        0.0000000000        0.0000000000        0.0000000000
        0.0000000000        0.0000000000        0.0000000000
        0.0000000000        0.0000000000        0.0000000000
        0.0000000000        0.0000000000        0.0000000000
        0.0000000000        0.0000000000        0.0000000000
        0.0000000000        0.0000000000        0.0000000000
        0.0000000000        0.0000000000        0.0000000000
        0.0000000000        0.0000000000        0.0000000000
        0.0000000000        0.0000000000        0.0000000000
        0.0000000000        0.0000000000        0.0000000000
        0.0000000000        0.0000000000        0.0000000000
        0.0000000000        0.0000000000        0.0000000000
        0.0000000000        0.0000000000        0.0000000000
        0.0000000000        0.0000000000        0.0000000000
        0.0984422298       -0.0178420694       -0.0806001604

 CCSD contribution to dipole derivatives 

        0.0000000000        0.0000000000        0.0000000000
        0.0000000000        0.0000000000        0.0000000000
        0.0000000000        0.0000000000        0.0000000000
        0.0000000000        0.0000000000        0.0000000000
        0.0000000000        0.0000000000        0.0000000000
        0.0000000000        0.0000000000        0.0000000000
        0.0000000000        0.0000000000        0.0000000000
        0.0000000000        0.0000000000        0.0000000000
        0.0000000000        0.0000000000        0.0134058035
 @CHECKOUT-I, Total execution time (CPU/WALL):      894.19/     233.06 seconds.
--executable xsdcc finished with status     0 in      233.24 seconds (walltime).
 --invoking executable--
/home/asmola/.local/bin/xanti
 @GETMEM-I,  Allocated    3814 MB of main memory.
 CCSD MO derivative gammas will be sorted to Mulliken order.
 @CHECKOUT-I, Total execution time (CPU/WALL):        6.40/       9.02 seconds.
--executable xanti finished with status     0 in        9.13 seconds (walltime).
 --invoking executable--
/home/asmola/.local/bin/xbcktrn
 @GETMEM-I,  Allocated    3814 MB of main memory.
 CCSD MO derivative gammas will be transformed to the AO basis.
 @CHECKOUT-I, Total execution time (CPU/WALL):       10.64/       2.24 seconds.
--executable xbcktrn finished with status     0 in        2.28 seconds (walltime).
 --invoking executable--
/home/asmola/.local/bin/xvdint
 @GETMEM-I,  Allocated    3814 MB of main memory.
 One- and two-electron integral derivatives are calculated
 for RHF-CC/MBPT hessians and dipole derivatives.
 Spherical gaussians are used.
  magnet F F
 Evaluation of 2el integral derivatives

                      Two-electron integral gradient
                      ------------------------------

                         O #1 x     0.0000000000
                         O #1 y     0.0000000000
                         H #2 x     0.0000000000
                         H #2 y     0.0000000000
                         CL#3 x     0.0000000000
                         CL#3 y     0.0000000000


 O #1       0.0000000000            0.0000000000           -0.0920466294
 H #2       0.0000000000            0.0000000000            0.0071163480
 CL#3       0.0000000000            0.0000000000            0.0849302814


 Evaluation of 2e integral derivatives required  118.20 seconds.
  contribution to Hessian
        0.0000000000        0.0000000000        0.0000000000
        0.0000000000        0.0000000000        0.0000000000
       -0.0920466294        0.0071163480        0.0849302814
 @CHECKOUT-I, Total execution time (CPU/WALL):      118.29/      20.57 seconds.
--executable xvdint finished with status     0 in       20.67 seconds (walltime).
 --invoking executable--
/home/asmola/.local/bin/xanti
 @GETMEM-I,  Allocated    3814 MB of main memory.
 CCSD MO gammas will be sorted to Mulliken order.
 @CHECKOUT-I, Total execution time (CPU/WALL):        7.04/       5.61 seconds.
--executable xanti finished with status     0 in        5.69 seconds (walltime).
 --invoking executable--
/home/asmola/.local/bin/xbcktrn
 @GETMEM-I,  Allocated    3814 MB of main memory.
 CCSD MO gammas will be transformed to the AO basis.
 @CHECKOUT-I, Total execution time (CPU/WALL):       19.57/       4.49 seconds.
--executable xbcktrn finished with status     0 in        4.53 seconds (walltime).
 --invoking executable--
/home/asmola/.local/bin/xvdint
 @GETMEM-I,  Allocated    3814 MB of main memory.
 One- and two-electron integral derivatives are calculated
 for RHF-CC/MBPT hessians and dipole derivatives.
 Spherical gaussians are used.
  magnet F F

                     Kinetic energy integral gradient
                     --------------------------------

                         O #1 x     0.1536278677
                         O #1 y    -0.3241667910
                         H #2 x     0.1819487033
                         H #2 y     0.3413171863
                         CL#3 x    -0.3355765710
                         CL#3 y    -0.0171503954


 O #1       0.1536278677           -0.3241667910            0.0000000000
 H #2       0.1819487033            0.3413171863            0.0000000000
 CL#3      -0.3355765710           -0.0171503954            0.0000000000



                   Nuclear attraction integral gradient
                   ------------------------------------

                         O #1 x   -24.0403246291
                         O #1 y     5.3390173337
                         H #2 x    -3.7169356601
                         H #2 y    -5.2519830380
                         CL#3 x    27.7572602892
                         CL#3 y    -0.0870342957


 O #1     -24.0403246291            5.3390173337            0.0000000000
 H #2      -3.7169356601           -5.2519830380            0.0000000000
 CL#3      27.7572602892           -0.0870342957            0.0000000000



                      Reorthonormalization gradient
                      -----------------------------

                         O #1 x     0.0000000000
                         O #1 y     0.0000000000
                         H #2 x     0.0000000000
                         H #2 y     0.0000000000
                         CL#3 x     0.0000000000
                         CL#3 y     0.0000000000


 O #1       0.0000000000            0.0000000000            0.0000000000
 H #2       0.0000000000            0.0000000000            0.0000000000
 CL#3       0.0000000000            0.0000000000            0.0000000000



                     Kinetic energy integral Hessian
                     -------------------------------


           Symmetry 1

           O #1 x      O #1 y      H #2 x      H #2 y      CL#3 x      CL#3 y

 O #1 x    0.199117
 O #1 y    0.274971    0.090758
 H #2 x    0.165137   -0.274529   -0.166521
 H #2 y   -0.274529   -0.302702    0.282618    0.307547
 CL#3 x   -0.364254   -0.000442    0.001385   -0.008089    0.362869
 CL#3 y   -0.000442    0.211944   -0.008089   -0.004845    0.008531   -0.207099


           Symmetry 2

           O #1 z      H #2 z      CL#3 z

 O #1 z   -0.519630
 H #2 z    0.315353   -0.317448
 CL#3 z    0.204277    0.002095   -0.206372




           O #1 x      O #1 y      O #1 z      H #2 x      H #2 y      H #2 z

 O #1 x    0.199117
 O #1 y    0.274971    0.090758
 O #1 z    0.000000    0.000000   -0.519630

 H #2 x    0.165137   -0.274529    0.000000   -0.166521
 H #2 y   -0.274529   -0.302702    0.000000    0.282618    0.307547
 H #2 z    0.000000    0.000000    0.315353    0.000000    0.000000   -0.317448

 CL#3 x   -0.364254   -0.000442    0.000000    0.001385   -0.008089    0.000000
 CL#3 y   -0.000442    0.211944    0.000000   -0.008089   -0.004845    0.000000
 CL#3 z    0.000000    0.000000    0.204277    0.000000    0.000000    0.002095


           CL#3 x      CL#3 y      CL#3 z

 CL#3 x    0.362869
 CL#3 y    0.008531   -0.207099
 CL#3 z    0.000000    0.000000   -0.206372




                   Nuclear attraction integral Hessian
                   -----------------------------------


           Symmetry 1

           O #1 x      O #1 y      H #2 x      H #2 y      CL#3 x      CL#3 y

 O #1 x  -11.205537
 O #1 y   -1.299550    8.952336
 H #2 x   -2.955854    2.441596    2.529952
 H #2 y    2.423660    1.230752   -3.133373   -1.397583
 CL#3 x   14.161390   -1.142045    0.425901    0.709714  -14.587292
 CL#3 y   -1.124109  -10.183089    0.691778    0.166831    0.432332   10.016258


           Symmetry 2

           O #1 z      H #2 z      CL#3 z

 O #1 z   13.919833
 H #2 z   -4.255893    4.613404
 CL#3 z   -9.663940   -0.357511   10.021452




           O #1 x      O #1 y      O #1 z      H #2 x      H #2 y      H #2 z

 O #1 x  -11.205537
 O #1 y   -1.299550    8.952336
 O #1 z    0.000000    0.000000   13.919833

 H #2 x   -2.955854    2.441596    0.000000    2.529952
 H #2 y    2.423660    1.230752    0.000000   -3.133373   -1.397583
 H #2 z    0.000000    0.000000   -4.255893    0.000000    0.000000    4.613404

 CL#3 x   14.161390   -1.142045    0.000000    0.425901    0.709714    0.000000
 CL#3 y   -1.124109  -10.183089    0.000000    0.691778    0.166831    0.000000
 CL#3 z    0.000000    0.000000   -9.663940    0.000000    0.000000   -0.357511


           CL#3 x      CL#3 y      CL#3 z

 CL#3 x  -14.587292
 CL#3 y    0.432332   10.016258
 CL#3 z    0.000000    0.000000   10.021452




                Highest order reorthonormalization Hessian
                ------------------------------------------


           Symmetry 1

           O #1 x      O #1 y      H #2 x      H #2 y      CL#3 x      CL#3 y

 O #1 x    0.000000
 O #1 y    0.000000    0.000000
 H #2 x    0.000000    0.000000    0.000000
 H #2 y    0.000000    0.000000    0.000000    0.000000
 CL#3 x    0.000000    0.000000    0.000000    0.000000    0.000000
 CL#3 y    0.000000    0.000000    0.000000    0.000000    0.000000    0.000000


           Symmetry 2

           O #1 z      H #2 z      CL#3 z

 O #1 z    0.000000
 H #2 z    0.000000    0.000000
 CL#3 z    0.000000    0.000000    0.000000




           O #1 x      O #1 y      O #1 z      H #2 x      H #2 y      H #2 z


           CL#3 x      CL#3 y      CL#3 z




                Electronic contributions to dipole moment
                -----------------------------------------

                               au             Debye

                    x      1.72045267      4.37295527
                    y      0.29901968      0.76003236

  Conversion factor used: 1 a.u. =   2.54174691 Debye 



   Electronic contributions to static part of dipole moment derivatives
   --------------------------------------------------------------------


                     Total dipole moment derivatives
                     -------------------------------


           Symmetry 1
                              Ex             Ey

               O #1 x    -8.87708939    -0.07734769
               O #1 y    -0.29765047    -8.83533766
               H #2 x    -0.32976577     0.11319460
               H #2 y     0.37202129    -0.30702898
               CL#3 x   -16.79314484    -0.03584691
               CL#3 y    -0.07437082   -16.85763336

           Symmetry 2
                              Ez

               O #1 z    -8.45627264
               H #2 z    -0.66745004
               CL#3 z   -16.87627732



                       Ex          Ey          Ez

      O #1    x   -8.877089   -0.077348    0.000000
      O #1    y   -0.297650   -8.835338    0.000000
      O #1    z    0.000000    0.000000   -8.456273

      H #2    x   -0.329766    0.113195    0.000000
      H #2    y    0.372021   -0.307029    0.000000
      H #2    z    0.000000    0.000000   -0.667450

      CL#3    x  -16.793145   -0.035847    0.000000
      CL#3    y   -0.074371  -16.857633    0.000000
      CL#3    z    0.000000    0.000000  -16.876277

 Evaluation of 1e integral derivatives required    1.68 seconds.
 Evaluation of 2el integral derivatives

                      Two-electron integral gradient
                      ------------------------------

                         O #1 x    11.0223554992
                         O #1 y    -2.4688605230
                         H #2 x     1.9975505392
                         H #2 y     2.6300937152
                         CL#3 x   -13.0199060384
                         CL#3 y    -0.1612331922


 O #1      11.0223554992           -2.4688605230            0.0000000000
 H #2       1.9975505392            2.6300937152            0.0000000000
 CL#3     -13.0199060384           -0.1612331922            0.0000000000


 Evaluation of 2e integral derivatives required  275.38 seconds.

                            Molecular gradient
                            ------------------

                         O #1 x    -0.0121281733
                         O #1 y     0.2765969331
                         H #2 x    -0.1498599230
                         H #2 y    -0.2972639155
                         CL#3 x     0.1619880963
                         CL#3 y     0.0206669824


 O #1      -0.0121281733            0.2765969331            0.0000000000
 H #2      -0.1498599230           -0.2972639155            0.0000000000
 CL#3       0.1619880963            0.0206669824            0.0000000000


  Molecular gradient norm 0.463E+00

                            Molecular hessian
                            -----------------


           Symmetry 1

           O #1 x      O #1 y      H #2 x      H #2 y      CL#3 x      CL#3 y

 O #1 x    2.289004
 O #1 y    1.853616    7.348127
 H #2 x   -0.510507   -3.051258    0.748351
 H #2 y   -2.108241   -7.505571    2.294974    7.302573
 CL#3 x   -1.778496    0.462368   -0.194760   -0.036332    1.973256
 CL#3 y    0.254624    0.157444   -0.075521    0.068581   -0.179103   -0.226024


           Symmetry 2

           O #1 z      H #2 z      CL#3 z

 O #1 z   -0.687790
 H #2 z    0.762838   -0.776281
 CL#3 z   -0.075048   -0.022459    0.097507




           O #1 x      O #1 y      O #1 z      H #2 x      H #2 y      H #2 z

 O #1 x    2.289004
 O #1 y    1.853616    7.348127
 O #1 z    0.000000    0.000000   -0.687790

 H #2 x   -0.510507   -3.051258    0.000000    0.748351
 H #2 y   -2.108241   -7.505571    0.000000    2.294974    7.302573
 H #2 z    0.000000    0.000000    0.762838    0.000000    0.000000   -0.776281

 CL#3 x   -1.778496    0.462368    0.000000   -0.194760   -0.036332    0.000000
 CL#3 y    0.254624    0.157444    0.000000   -0.075521    0.068581    0.000000
 CL#3 z    0.000000    0.000000   -0.075048    0.000000    0.000000   -0.022459


           CL#3 x      CL#3 y      CL#3 z

 CL#3 x    1.973256
 CL#3 y   -0.179103   -0.226024
 CL#3 z    0.000000    0.000000    0.097507




                           Total dipole moment
                           -------------------

                               au             Debye

                    x     -0.21509678     -0.54672159
                    y     -0.63519505     -1.61450504

  Conversion factor used: 1 a.u. =   2.54174691 Debye 



                     Total dipole moment derivatives
                     -------------------------------


           Symmetry 1
                              Ex             Ey

               O #1 x    -0.39061287    -0.03180549
               O #1 y    -0.06652060    -0.12275563
               H #2 x     0.22589461    -0.01629232
               H #2 y     0.01559866     0.14826550
               CL#3 x     0.16471852     0.04809774
               CL#3 y     0.05092199    -0.02550990

           Symmetry 2
                              Ez

               O #1 z    -0.31312509
               H #2 z     0.30942778
               CL#3 z     0.00369748



                       Ex          Ey          Ez

      O #1    x   -0.390613   -0.031805    0.000000
      O #1    y   -0.066521   -0.122756    0.000000
      O #1    z    0.000000    0.000000   -0.313125

      H #2    x    0.225895   -0.016292    0.000000
      H #2    y    0.015599    0.148265    0.000000
      H #2    z    0.000000    0.000000    0.309428

      CL#3    x    0.164719    0.048098    0.000000
      CL#3    y    0.050922   -0.025510    0.000000
      CL#3    z    0.000000    0.000000    0.003697

  Molecular gradient does not satisfy rotational invariance condition.
   rotational invariance in yz-plane :        0.0000E+00
   rotational invariance in xz-plane :        0.0000E+00
   rotational invariance in xy-plane :        -.5024E-02
 @CHECKOUT-I, Total execution time (CPU/WALL):      277.09/      47.16 seconds.
--executable xvdint finished with status     0 in       56.66 seconds (walltime).
 --invoking executable--
/home/asmola/.local/bin/xjoda
  @GTFLGS-I, Hessian will be transformed to curvilinear coordinates.
  @GTFLGS-I, Hessian will be transformed to curvilinear coordinates.
  igrd and ihes are                      0                     1
  gradient from JOBARC 
  -0.012128173298462   0.276596933105586   0.000000000000000
  -0.149859923044828  -0.297263915459493   0.000000000000000
   0.161988096343309   0.020666982353910   0.000000000000000
 
  @PROJFCM-I, Projecting force constant matrix onto totally symmetric subspace.
  Largest difference between matrix elements of symmetrized
  and unsymmetrized FCM :     0.0000000000E+00.
 
  Summary of diagonal Born-Oppenheimer correction at the correlated level
  The total diagonal Born-Oppenheimer correction (DBOC) is:      0.0087212076 a.u.
  The total diagonal Born-Oppenheimer correction (DBOC) is:       1914.083827 cm-1
  The total diagonal Born-Oppenheimer correction (DBOC) is:            22.898 kJ/mole
  hellooooooo 
  readis is  F
 
 @CHECKOUT-I, Total execution time (CPU/WALL):        0.02/       0.04 seconds.
--executable xjoda finished with status     0 in        0.08 seconds (walltime).
  The final electronic energy is      -535.754427586634279 a.u. 
  This computation required                         2783.10 seconds (walltime).
