 --invoking executable--
/home/asmola/.local/bin/xjoda


   *************************************************************************
         <<<     CCCCCC     CCCCCC   |||     CCCCCC     CCCCCC   >>>
       <<<      CCC        CCC       |||    CCC        CCC         >>>
      <<<      CCC        CCC        |||   CCC        CCC            >>>
    <<<        CCC        CCC        |||   CCC        CCC              >>>
      <<<      CCC        CCC        |||   CCC        CCC            >>>
       <<<      CCC        CCC       |||    CCC        CCC         >>>
         <<<     CCCCCC     CCCCCC   |||     CCCCCC     CCCCCC   >>>
   *************************************************************************

     ****************************************************************
     * CFOUR Coupled-Cluster techniques for Computational Chemistry *
     ****************************************************************
 

   Department of Chemistry                Institut fuer Physikalische Chemie
   University of Florida                  Universitaet Mainz
   Gainesville, FL 32611, USA             D-55099 Mainz, Germany

   Department of Chemistry                Fakultaet fuer Chemie und Biowiss.
   Johns Hopkins University               Karlsruher Institut fuer Technologie
   Baltimore, MD 21218, USA               D-76131 Karlsruhe, Germany

   Department of Chemistry                Department of Physical Chemistry
   Southern Methodist University          Eotvos Lorand University
   Dallas, TX 75275, USA                  H-1053 Budapest, Hungary

 
                       Version 2.1
 
                     vincent.theory.phys.ucl.ac.uk                     
                     Fri 31 Jan 10:34:32 GMT 2025                      
                     integer*8 version is running
 
********************************************************************************
*                          Input from ZMAT file                                *
********************************************************************************
Hypochlorous acid DBOC calculation                                              
O                                                                               
H 1 ROH                                                                         
CL 1 ROCL 2 A                                                                   
                                                                                
ROH=2.1000000000000005                                                          
ROCL=1.683                                                                      
A=107.0                                                                         
                                                                                
                                                                                
*CFOUR(CALC=CCSD,BASIS=AUG-PCVTZ,SCF_CONV=10                                    
CC_CONV=10,DBOC=ON,MEMORY=500000000)                                            
********************************************************************************
  @GTFLGS-I, Hessian will be transformed to curvilinear coordinates.
    -------------------------------------------------------------------
                    CFOUR Control Parameters 
    -------------------------------------------------------------------
        External           Internal           Value            Units
          Name               Name
    -------------------------------------------------------------------
       ABCDTYPE             IABCDT         STANDARD    [  0]    ***   
       ANHARMONIC           IANHAR         OFF         [  0]    ***   
       ANH_ALGORIT          IANALG         STANDARD    [  0]    ***   
       ANH_DERIVAT          IANDER         SECOND      [  1]    ***   
       ANH_MODE             ANHMOD         VIBRATION   [  0]    ***   
       ANH_STEPSIZ          ICUBST             50000          x 10-6  
       ANH_SYMMETR          IANHSM         ABELIAN     [  0]    ***   
       AO_LADDERS           IAOLAD         SINGLEPASS  [  1]    ***   
       AV_SCF               IAVSCF         OFF         [  0]    ***   
       BASIS                IBASIS         AUG-PCVTZ   [ 51]    ***   
       BOTHVECTORS          BOTHVC         OFF         [  0]    ***   
       BOX_POTENT           IPIAB          OFF         [  0]    ***   
       BREIT                IBREIT         OFF         [  0]    ***   
       BRUCK_CONV           IBRTOL          10D-  4             ***   
       BRUECKNER            IBRKNR         OFF         [  0]    ***   
       BUFFERSIZE           IBUFFS              4096            ***   
       CACHE_RECS           ICHREC             10               ***   
       CALCLEVEL            ICLLVL         CCSD        [ 10]    ***   
       CCORBOPT             ICCORB         OFF         [  0]  x 0.01  
       CC_CONV              ICCCNV          10D- 10             ***   
       CC_EXPORDER          ICCEOR              5               ***   
       CC_EXTRAPOL          ICCEXT         DIIS        [  1]    ***   
       CC_GUESS             ICCGES         MP2         [  0]    ***   
       CC_MAXCYC            ICCCYC            100              cycles 
       CC_PROGRAM           ICCPRO         VCC         [  0]    ***   
       CHARGE               ICHRGE              0               ***   
       CHOLESKY             ICHOLE         OFF         [  0]    ***   
       CIS_CONV             ICISTL              5               ***   
       COMM_SIZE            IPSIZE            ***               ***   
       CONSTANT             ICONST         OLD         [  1]    ***   
       CONTINUUM            ICONTU         NONE        [  0]    ***   
       CONTRACTION          ICNTYP         GENERAL     [  1]    ***   
       COORDINATES          ICOORD         INTERNAL    [  0]    ***   
       CPHF_CONVER          ICPHFT          10D- 16             ***   
       CPHF_MAXCYC          ICPHFC             64              cycles 
       CUBIC                ICUBIC         OFF         [  0]    ***   
       CURVILINEAR          ICURVY         ON          [  1]    ***   
       DBOC                 IDBOC          ON          [  1]    ***   
       DCT                  IDCT           OFF         [  0]    ***   
       DERIV_LEV            IDRLVL         SECOND      [  2]    ***   
       DEVMEM_SIZE          IDVMEM          50000000           MByte  
       DIAG_MRCC            IEOMST          10D-  0             ***   
       DIFF_TYPE            IDIFTY         RELAXED     [  0]    ***   
       DIRECT               IDIRCT         OFF         [  0]    ***   
       DROPMO               IDRPMO      NONE         
       ECP                  IECP           OFF         [  0]    ***   
       EIGENVECTOR          IVEC                1               ***   
       EL_ANHARM            IELANH         OFF         [  0]    ***   
       EOMFOLLOW            IEOMSR         ENERGY      [  0]    ***   
       EOMIP                IEOMIP         OFF         [  0]    ***   
       EOMLEVEL             HBARFM         SAME        [  0]    ***   
       EOM_MRCC             IMRCCE         NEW         [  1]    ***   
       EOM_NONIT            EOMNON         OFF         [  0]    ***   
       EOM_NSING            IEOMSI          10D-  0             ***   
       EOM_NSTATES          IMRCCD         DAVIDSON    [  0]    ***   
       EOM_NTRIP            IEOMTR          10D-  0             ***   
       EOM_ORDER            IEXORD         ENERGY      [  0]    ***   
       EOM_PROPSTA          IEOMST              0               ***   
       ESTATE_CONV          IEXTOL          10D-  5             ***   
       ESTATE_DIAG          IEXDIG         ITERATIVE   [  0]    ***   
       ESTATE_LOCK          IESLOC         ON          [  1]    ***   
       ESTATE_MAXC          IEXMXC             40               ***   
       ESTATE_PROP          IEXPRP         OFF         [  0]    ***   
       EVAL_HESS            IRECAL              0            # of cyc.
       EXCITATION           IEXCIT              0               ***   
       EXCITE               IEXCIT         NONE        [  0]    ***   
       EXTERN_POT           IEXPOT         OFF         [  0]    ***   
       FCGRADNEW            IFCGNW         OFF         [  0]    ***   
       FC_FIELD             IFINFC              0             x 10-6  
       FD_CALTYPE           IFDCAL         GRADONLY    [  0]    ***   
       FD_PROJECT           IFDPRJ         OFF         [  1]    ***   
       FD_STEPSIZE          IDISFD              0            10-4 bohr
       FD_USEGROUP          IFDGRP         FULL        [  0]    ***   
       FILE_RECSIZ          IFLREC              4096           words  
       FINITE_PERT          IFIPER              0             x 10-6  
       FIXGEOM              IFIXGM         OFF         [  0]    ***   
       FOCK                 IFOCK          AO          [  1]    ***   
       FREQ_ALGORI          IVIALG         STANDARD    [  0]    ***   
       FROZEN_CORE          IFROCO         OFF         [  0]    ***   
       GAMMA_ABCD           IGABCD         STORE       [  0]    ***   
       GAMMA_ABCI           IGABCI         STORE       [  0]    ***   
       GENBAS_1             IGNBS1              0               ***   
       GENBAS_2             IGNBS2              0               ***   
       GENBAS_3             IGNBS3              0               ***   
       GENBAS_4             IGNBS4              0               ***   
       GEO_CONV             ICONTL              5              H/bohr 
       GEO_MAXCYC           IOPTCY             50               ***   
       GEO_MAXSTEP          IMXSTP            300            millibohr
       GEO_METHOD           INR            SINGLE_POINT[  5]    ***   
       GIAO                 IGIAO          OFF         [  1]    ***   
       GIMIC                IGIMIC         OFF         [  0]    ***   
       GRID                 IGRID          OFF         [  0]    ***   
       GRID_ALGO            IGALGO         SERIAL      [  0]    ***   
       GUESS                IGUESS         MOREAD      [  0]    ***   
       HBAR                 IHBAR          OFF         [  0]    ***   
       HESS_TYPE            IHESTP         SCF         [  0]    ***   
       HF2_FILE             IHF2Fl         USE         [  1]    ***   
       HFSTABILITY          ISTABL         OFF         [  0]    ***   
       INCORE               INCORE         OFF         [  0]    ***   
       INPUT_MRCC           IMRCC          ON          [  1]    ***   
       INTEGRALS            INTTYP         VMOL        [  1]    ***   
       JODA_PRINT           IJPRNT              0               ***   
       KEYWORD_OUT          IDMPKW         NO          [  0]    ***   
       LINDEP_TOL           ILINDP              8               ***   
       LINEQ_CONV           IZTACN          10D-  7           cycles  
       LINEQ_EXPOR          ILMAXD              5               ***   
       LINEQ_MAXCY          ILMAXC            100               ***   
       LINEQ_TYPE           ILTYPE         DIIS        [  1]    ***   
       LOCK_ORBOCC          ILOCOC         OFF         [  0]    ***   
       MEMORY_SIZE          IMEMSZ         500000000           words  
       MEM_UNIT             IMEMU          INTEGERWORDS[  0]    ***   
       MRCC                 IMRCCC         OFF         [  0]    ***   
       MULTIPLICTY          IMULTP              1               ***   
       NACOUPLING           IVCOUP         OFF         [  0]    ***   
       NEGEVAL              IDIE           ABORT       [  0]    ***   
       NEWNORM              INEWNO         OFF         [  0]    ***   
       NON-HF               INONHF         OFF         [  0]    ***   
       NTOP_TAMP            ITOPT2             15               ***   
       NUC_MODEL            INUCMO         POINT       [  0]    ***   
       OCCUPATION           IOCCU   ESTIMATED BY SCF 
       OPEN-SHELL           IOPEN          SPIN-ORBITAL[  0]    ***   
       OPTVIB               IOPTVB         OFF         [  0]    ***   
       ORBITALS             IORBTP         STANDARD    [  0]    ***   
       PARALLEL             IPARAL         ON          [  1]    ***   
       PARA_INT             IPINTS         ON          [  1]    ***   
       PARA_PRINT           IPPRIN              0               ***   
       PERT_ORB             IPTORB         STANDARD    [  0]    ***   
       POINTS               IGRDFD              0               ***   
       PRINT                IPRNT               0               ***   
       PROPS                IPROPS         OFF         [  0]    ***   
       PROP_INTEGR          IINTYP         INTERNAL    [  0]    ***   
       PSI                  IPSI           OFF         [  0]    ***   
       QC_ALG               IQCALG         FLM         [  0]    ***   
       QC_LINALG            IQCLIN         TRIDIAG     [  2]    ***   
       QC_MAXCYC            IQCMAX          10D-100           cycles  
       QC_MAXSCFCY          IQCMSC          10D- 15           cycles  
       QC_RTRUST            IQCRTR          10D-  0           x 10-3  
       QC_SKIPSCF           IQCSKI         OFF         [  0]    ***   
       QC_START             IQCSTA          10D-  1             ***   
       QRHFGUESS            IQGUES         OFF         [  0]    ***   
       QUARTIC              IQUART         OFF         [  0]    ***   
       RAMAN_INT            IRAMIN         OFF         [  0]    ***   
       RAMAN_ORB            IRAMRE         UNRELAXED   [  0]    ***   
       RDO                  IRDOFM         ON          [  1]    ***   
       REDUCE_REPR          REDREP         Ir          [  0]    ***   
       REFERENCE            IREFNC         RHF         [  0]    ***   
       RELATIVIST           IRELAT         OFF         [  0]    ***   
       RELAX_DENS           IRDENS         ON          [  1]    ***   
       RESET_FLAGS          IRESET         OFF         [  0]    ***   
       RESTART_CC           ICCRES         OFF         [  0]    ***   
       ROT_EVEC             ROTVEC              0               ***   
       SAVE_INTS            ISVINT         OFF         [  0]    ***   
       SCALE_ON             ISTCRT              0               ***   
       SCF_CONV             ISCFCV          10D- 10             ***   
       SCF_DAMPING          IDAMP               0             x 10-3  
       SCF_EXPORDE          IRPPOR              6               ***   
       SCF_EXPSTAR          IRPPLS              8               ***   
       SCF_EXTRAPO          IRPP           ON          [  1]    ***   
       SCF_MAXCYC           ISCFCY            150              cycles 
       SCF_NOSTOP           ISCFST         OFF         [  0]    ***   
       SCF_PRINT            ISCFPR              0               ***   
       SCF_PROG             ISCFPR         SCF         [  0]    ***   
       SD_FIELD             IFINSD              0             x 10-6  
       SOPERT               IPERSO         OFF         [  0]    ***   
       SPHERICAL            IDFGHI         ON          [  1]    ***   
       SPINORBIT            ISOCAL         OFF         [  0]    ***   
       SPINROTATIO          ISRCON         OFF         [  0]    ***   
       SPIN_FLIP            ISPFLP         OFF         [  0]    ***   
       SPIN_ORBIT           ISPORB         OFF         [  0]    ***   
       SPIN_SCAL            ISCSMP         OFF         [  0]    ***   
       STEEPSCALE           ISTPSC              1000          x 10-3  
       SUBGROUP             ISUBGP         DEFAULT     [  0]    ***   
       SUBGRPAXIS           ISBXYZ         X           [  0]    ***   
       SYMMETRY             ISYM           ON          [  0]    ***   
       SYM_CHECK            ISYMCK         OVERRIDE    [  1]    ***   
       T3_EXTRAPOL          IT3EXT         OFF         [  0]    ***   
       T4_EXTRAPOL          IT4EXP         OFF         [  0]    ***   
       TAMP_SUM             IEVERY              5               ***   
       TESTSUITE            ITESTS         OFF         [  0]    ***   
       THERMOCH             ITHERM         OFF         [  0]    ***   
       TOL_CHOLESK          ITOLCH          10D-  4             ***   
       TRANGRAD             IRESRM         OFF         [  0]    ***   
       TRANS_INV            ITRAIN         IGNORE      [  1]    ***   
       TREAT_PERT           ITREAT         SIMULTANEOUS[  0]    ***   
       TRIP_ALGORI          ITRALG         NORMAL      [  0]    ***   
       UIJ_THRESHO          IUIJTH              1               ***   
       UNITS                IUNITS         ANGSTROM    [  0]    ***   
       UNOS                 IUNOS          OFF         [  0]    ***   
       UPDATE_HESS          IHUPDT         ON          [  1]    ***   
       VIBPHASE             ISETPH         STANDARD    [  0]    ***   
       VIBRATION            IVIB           ANALYTIC    [  1]    ***   
       VIB_ALGORIT          IGEALG         STANDARD    [  0]    ***   
       VNATORB              IVNORB         OFF         [  0]    ***   
       VTRAN                IVTRAN         FULL/PARTIAL[  0]    ***   
       XFIELD               IXEFLD              0             x 10-6  
       XFORM_TOL            IXFTOL          10D- 11             ***   
       YFIELD               IYEFLD              0             x 10-6  
       ZFIELD               IZEFLD              0             x 10-6  
       ZSCALE_EXP           IZEXPS         OFF         [  0]    ***   
    -------------------------------------------------------------------
   3 entries found in Z-matrix 
   Job Title : Hypochlorous acid DBOC calculation                                              
   There are  3 unique internal coordinates.
   Of these,  0 will be optimized.
   User supplied Z-matrix: 
--------------------------------------------------------------------------------
       SYMBOL    BOND      LENGTH    ANGLE     ANGLE     DIHED     ANGLE
                  TO      (ANGST)    WRT      (DEG)      WRT      (DEG)
--------------------------------------------------------------------------------
        O    
        H          1         ROH  
        CL         1         ROCL       2        A    
                  *Initial values for internal coordinates* 
                      Name             Value
                        ROH             2.1000000000
                        ROCL            1.6830000000
                        A             107.0000000000
--------------------------------------------------------------------------------
   Rotational constants (in cm-1): 
          0.4417151443             0.4874816306             4.7049279087
   Rotational constants (in MHz): 
      13242.2887398943         14614.3336752184        141050.2100083842
********************************************************************************
   The full molecular point group is C s .
   The largest Abelian subgroup of the full molecular point group is C s .
   The computational point group is C s .
********************************************************************************
--------------------------------------------------------------------------------
   Analysis of internal coordinates specified by Z-matrix 
--------------------------------------------------------------------------------
   *The nuclear repulsion energy is   47.726157018983599 a.u.
   *There are   3 degrees of freedom within the tot. symm. molecular subspace.
   *Z-matrix requests optimization of   0 coordinates.
   *The optimization is constrained.
   *The following   3 parameters can have non-zero 
    derivatives within the totally symmetric subspace:
             A    [ 3]  ROH  [ 1]  ROCL [ 2]
   *The following   0 parameters are to be optimized:

   *The following coordinates must be varied in an  unconstrained optimization.
             A    [ 3]  ROH  [ 1]  ROCL [ 2]
--------------------------------------------------------------------------------


 ----------------------------------------------------------------
         Coordinates used in calculation (QCOMP) 
 ----------------------------------------------------------------
 Z-matrix   Atomic            Coordinates (in bohr)
  Symbol    Number           X              Y              Z
 ----------------------------------------------------------------
     O         8        -2.09523395     0.31448191     0.00000000
     H         1        -3.68052811    -3.32354570     0.00000000
     CL       17         1.06444489    -0.04805873     0.00000000
 ----------------------------------------------------------------
 
   Interatomic distance matrix (Angstroms) 
 
                 O             H             CL   
                [ 1]        [ 2]        [ 3]
  O    [ 1]     0.00000
  H    [ 2]     2.10000     0.00000
  CL   [ 3]     1.68300     3.05109     0.00000
 rotcon2
   Rotational constants (in cm-1): 
          4.7049279087             0.4874816306             0.4417151443
   Rotational constants (in MHz): 
     141050.2100083841         14614.3336752184         13242.2887398943
  ECPDATA file not present.   Using default ECPDATA. 
  @GTFLGS-I, Hessian will be transformed to curvilinear coordinates.
  There are  157 basis functions.
 @CHECKOUT-I, Total execution time (CPU/WALL):        0.19/       0.51 seconds.
--executable xjoda finished with status     0 in        0.55 seconds (walltime).
 --invoking executable--
/home/asmola/.local/bin/xvmol
 SERIAL VERSION OF MOLECULE STARTED
********************************************************************************
                    INPUT FROM MOL FILE
********************************************************************************
INTGRL        1    0    1    0    0    0    0    0    0                         
         *** CFOUR Program System (Release V0.1) ***                            
Hypochlorous acid DBOC calculation                                              
    3    1 Z          0.10E-08              0    0                              
   9999.00      3.00                                                            
          8.00000000    1    4    1    1    1    1                              
O #1  -2.095233949351794   0.314481914284798   0.000000000000000                
   13    7                                                                      
   15330.0000000000       5.080000000000000E-004 -1.150000000000000E-004        
  0.000000000000000E+000  0.000000000000000E+000  0.000000000000000E+000        
  0.000000000000000E+000  0.000000000000000E+000                                
   2299.00000000000       3.929000000000000E-003 -8.950000000000000E-004        
  0.000000000000000E+000  0.000000000000000E+000  0.000000000000000E+000        
  0.000000000000000E+000  0.000000000000000E+000                                
   522.400000000000       2.024300000000000E-002 -4.636000000000000E-003        
  0.000000000000000E+000  0.000000000000000E+000  0.000000000000000E+000        
  0.000000000000000E+000  0.000000000000000E+000                                
   147.300000000000       7.918100000000000E-002 -1.872400000000000E-002        
  0.000000000000000E+000  0.000000000000000E+000  0.000000000000000E+000        
  0.000000000000000E+000  0.000000000000000E+000                                
   47.5500000000000       0.230687000000000      -5.846300000000000E-002        
  0.000000000000000E+000  0.000000000000000E+000  0.000000000000000E+000        
  0.000000000000000E+000  0.000000000000000E+000                                
   16.7600000000000       0.433118000000000      -0.136463000000000             
  0.000000000000000E+000  0.000000000000000E+000  0.000000000000000E+000        
  0.000000000000000E+000  0.000000000000000E+000                                
   6.20700000000000       0.350260000000000      -0.175740000000000             
  0.000000000000000E+000  0.000000000000000E+000  0.000000000000000E+000        
  0.000000000000000E+000  0.000000000000000E+000                                
   1.75200000000000       4.272800000000000E-002  0.160934000000000             
   1.00000000000000       0.000000000000000E+000  0.000000000000000E+000        
  0.000000000000000E+000  0.000000000000000E+000                                
  0.688200000000000      -8.154000000000000E-003  0.603418000000000             
  0.000000000000000E+000  0.000000000000000E+000  0.000000000000000E+000        
  0.000000000000000E+000  0.000000000000000E+000                                
  0.238400000000000       2.381000000000000E-003  0.378765000000000             
  0.000000000000000E+000   1.00000000000000       0.000000000000000E+000        
  0.000000000000000E+000  0.000000000000000E+000                                
   7.84500000000000       0.000000000000000E+000  0.000000000000000E+000        
  0.000000000000000E+000  0.000000000000000E+000   1.00000000000000             
  0.000000000000000E+000  0.000000000000000E+000                                
   21.0320000000000       0.000000000000000E+000  0.000000000000000E+000        
  0.000000000000000E+000  0.000000000000000E+000  0.000000000000000E+000        
   1.00000000000000       0.000000000000000E+000                                
  7.376000000000001E-002  0.000000000000000E+000  0.000000000000000E+000        
  0.000000000000000E+000  0.000000000000000E+000  0.000000000000000E+000        
  0.000000000000000E+000   1.00000000000000                                     
    8    6                                                                      
   34.4600000000000       1.592800000000000E-002  0.000000000000000E+000        
  0.000000000000000E+000  0.000000000000000E+000  0.000000000000000E+000        
  0.000000000000000E+000                                                        
   7.74900000000000       9.974000000000000E-002  0.000000000000000E+000        
  0.000000000000000E+000  0.000000000000000E+000  0.000000000000000E+000        
  0.000000000000000E+000                                                        
   2.28000000000000       0.310492000000000       0.000000000000000E+000        
  0.000000000000000E+000  0.000000000000000E+000  0.000000000000000E+000        
  0.000000000000000E+000                                                        
  0.715600000000000       0.491026000000000        1.00000000000000             
  0.000000000000000E+000  0.000000000000000E+000  0.000000000000000E+000        
  0.000000000000000E+000                                                        
  0.214000000000000       0.336337000000000       0.000000000000000E+000        
   1.00000000000000       0.000000000000000E+000  0.000000000000000E+000        
  0.000000000000000E+000                                                        
   15.1590000000000       0.000000000000000E+000  0.000000000000000E+000        
  0.000000000000000E+000   1.00000000000000       0.000000000000000E+000        
  0.000000000000000E+000                                                        
   57.4370000000000       0.000000000000000E+000  0.000000000000000E+000        
  0.000000000000000E+000  0.000000000000000E+000   1.00000000000000             
  0.000000000000000E+000                                                        
  5.974000000000000E-002  0.000000000000000E+000  0.000000000000000E+000        
  0.000000000000000E+000  0.000000000000000E+000  0.000000000000000E+000        
   1.00000000000000                                                             
    4    4                                                                      
   2.31400000000000        1.00000000000000       0.000000000000000E+000        
  0.000000000000000E+000  0.000000000000000E+000                                
  0.645000000000000       0.000000000000000E+000   1.00000000000000             
  0.000000000000000E+000  0.000000000000000E+000                                
   15.8580000000000       0.000000000000000E+000  0.000000000000000E+000        
   1.00000000000000       0.000000000000000E+000                                
  0.214000000000000       0.000000000000000E+000  0.000000000000000E+000        
  0.000000000000000E+000   1.00000000000000                                     
    2    2                                                                      
   1.42800000000000        1.00000000000000       0.000000000000000E+000        
  0.500000000000000       0.000000000000000E+000   1.00000000000000             
          1.00000000    1    3    1    1    1                                   
H #2  -3.680528110478275  -3.323545697863308   0.000000000000000                
    6    4                                                                      
   33.8700000000000       6.068000000000000E-003  0.000000000000000E+000        
  0.000000000000000E+000  0.000000000000000E+000                                
   5.09500000000000       4.530800000000000E-002  0.000000000000000E+000        
  0.000000000000000E+000  0.000000000000000E+000                                
   1.15900000000000       0.202822000000000       0.000000000000000E+000        
  0.000000000000000E+000  0.000000000000000E+000                                
  0.325800000000000       0.503903000000000        1.00000000000000             
  0.000000000000000E+000  0.000000000000000E+000                                
  0.102700000000000       0.383421000000000       0.000000000000000E+000        
   1.00000000000000       0.000000000000000E+000                                
  2.526000000000000E-002  0.000000000000000E+000  0.000000000000000E+000        
  0.000000000000000E+000   1.00000000000000                                     
    3    3                                                                      
   1.40700000000000        1.00000000000000       0.000000000000000E+000        
  0.000000000000000E+000                                                        
  0.388000000000000       0.000000000000000E+000   1.00000000000000             
  0.000000000000000E+000                                                        
  0.102000000000000       0.000000000000000E+000  0.000000000000000E+000        
   1.00000000000000                                                             
    2    2                                                                      
   1.05700000000000        1.00000000000000       0.000000000000000E+000        
  0.247000000000000       0.000000000000000E+000   1.00000000000000             
         17.00000000    1    4    1    1    1    1                              
CL#3   1.064444888098019  -0.048058734605894   0.000000000000000                
   18    8                                                                      
   456100.000000000       4.930000000000000E-005 -1.380000000000000E-005        
  4.200000000000000E-006  0.000000000000000E+000  0.000000000000000E+000        
  0.000000000000000E+000  0.000000000000000E+000  0.000000000000000E+000        
   68330.0000000000       3.830000000000000E-004 -1.073000000000000E-004        
  3.240000000000000E-005  0.000000000000000E+000  0.000000000000000E+000        
  0.000000000000000E+000  0.000000000000000E+000  0.000000000000000E+000        
   15550.0000000000       2.008500000000000E-003 -5.651000000000000E-004        
  1.711000000000000E-004  0.000000000000000E+000  0.000000000000000E+000        
  0.000000000000000E+000  0.000000000000000E+000  0.000000000000000E+000        
   4405.00000000000       8.385600000000000E-003 -2.361400000000000E-003        
  7.142000000000000E-004  0.000000000000000E+000  0.000000000000000E+000        
  0.000000000000000E+000  0.000000000000000E+000  0.000000000000000E+000        
   1439.00000000000       2.947030000000000E-002 -8.458900000000000E-003        
  2.567000000000000E-003  0.000000000000000E+000  0.000000000000000E+000        
  0.000000000000000E+000  0.000000000000000E+000  0.000000000000000E+000        
   520.400000000000       8.783249999999999E-002 -2.596380000000000E-002        
  7.885500000000000E-003  0.000000000000000E+000  0.000000000000000E+000        
  0.000000000000000E+000  0.000000000000000E+000  0.000000000000000E+000        
   203.100000000000       0.211473000000000      -6.863619999999999E-002        
  2.108670000000000E-002  0.000000000000000E+000  0.000000000000000E+000        
  0.000000000000000E+000  0.000000000000000E+000  0.000000000000000E+000        
   83.9600000000000       0.365364000000000      -0.141874000000000             
  4.422640000000000E-002  0.000000000000000E+000  0.000000000000000E+000        
  0.000000000000000E+000  0.000000000000000E+000  0.000000000000000E+000        
   36.2000000000000       0.340884000000000      -0.199319000000000             
  6.516700000000000E-002  0.000000000000000E+000  0.000000000000000E+000        
  0.000000000000000E+000  0.000000000000000E+000  0.000000000000000E+000        
   15.8300000000000       0.102133000000000      -1.956620000000000E-002        
  6.030100000000000E-003  0.000000000000000E+000  0.000000000000000E+000        
  0.000000000000000E+000  0.000000000000000E+000  0.000000000000000E+000        
   6.33400000000000       3.116800000000000E-003  0.499741000000000             
 -0.206495000000000       0.000000000000000E+000  0.000000000000000E+000        
  0.000000000000000E+000  0.000000000000000E+000  0.000000000000000E+000        
   2.69400000000000       1.057500000000000E-003  0.563736000000000             
 -0.405871000000000       0.000000000000000E+000  0.000000000000000E+000        
  0.000000000000000E+000  0.000000000000000E+000  0.000000000000000E+000        
  0.976800000000000      -3.780000000000000E-004  7.903250000000001E-002        
  7.595580000000000E-002   1.00000000000000       0.000000000000000E+000        
  0.000000000000000E+000  0.000000000000000E+000  0.000000000000000E+000        
  0.431300000000000       1.561000000000000E-004 -8.350900000000000E-003        
  0.725661000000000       0.000000000000000E+000  0.000000000000000E+000        
  0.000000000000000E+000  0.000000000000000E+000  0.000000000000000E+000        
  0.162500000000000      -5.140000000000000E-005  2.324600000000000E-003        
  0.394423000000000       0.000000000000000E+000   1.00000000000000             
  0.000000000000000E+000  0.000000000000000E+000  0.000000000000000E+000        
   15.0640000000000       0.000000000000000E+000  0.000000000000000E+000        
  0.000000000000000E+000  0.000000000000000E+000  0.000000000000000E+000        
   1.00000000000000       0.000000000000000E+000  0.000000000000000E+000        
   2.87400000000000       0.000000000000000E+000  0.000000000000000E+000        
  0.000000000000000E+000  0.000000000000000E+000  0.000000000000000E+000        
  0.000000000000000E+000   1.00000000000000       0.000000000000000E+000        
  5.910000000000000E-002  0.000000000000000E+000  0.000000000000000E+000        
  0.000000000000000E+000  0.000000000000000E+000  0.000000000000000E+000        
  0.000000000000000E+000  0.000000000000000E+000   1.00000000000000             
   12    7                                                                      
   663.300000000000       2.404500000000000E-003 -6.521000000000000E-004        
  0.000000000000000E+000  0.000000000000000E+000  0.000000000000000E+000        
  0.000000000000000E+000  0.000000000000000E+000                                
   156.800000000000       1.921480000000000E-002 -5.194500000000000E-003        
  0.000000000000000E+000  0.000000000000000E+000  0.000000000000000E+000        
  0.000000000000000E+000  0.000000000000000E+000                                
   49.9800000000000       8.850970000000000E-002 -2.469380000000000E-002        
  0.000000000000000E+000  0.000000000000000E+000  0.000000000000000E+000        
  0.000000000000000E+000  0.000000000000000E+000                                
   18.4200000000000       0.256020000000000      -7.281670000000000E-002        
  0.000000000000000E+000  0.000000000000000E+000  0.000000000000000E+000        
  0.000000000000000E+000  0.000000000000000E+000                                
   7.24000000000000       0.436927000000000      -0.134030000000000             
  0.000000000000000E+000  0.000000000000000E+000  0.000000000000000E+000        
  0.000000000000000E+000  0.000000000000000E+000                                
   2.92200000000000       0.350334000000000      -9.477420000000000E-002        
  0.000000000000000E+000  0.000000000000000E+000  0.000000000000000E+000        
  0.000000000000000E+000  0.000000000000000E+000                                
   1.02200000000000       5.854950000000000E-002  0.262289000000000             
   1.00000000000000       0.000000000000000E+000  0.000000000000000E+000        
  0.000000000000000E+000  0.000000000000000E+000                                
  0.381800000000000      -4.584200000000000E-003  0.564667000000000             
  0.000000000000000E+000  0.000000000000000E+000  0.000000000000000E+000        
  0.000000000000000E+000  0.000000000000000E+000                                
  0.130100000000000       2.269700000000000E-003  0.341250000000000             
  0.000000000000000E+000   1.00000000000000       0.000000000000000E+000        
  0.000000000000000E+000  0.000000000000000E+000                                
   9.48000000000000       0.000000000000000E+000  0.000000000000000E+000        
  0.000000000000000E+000  0.000000000000000E+000   1.00000000000000             
  0.000000000000000E+000  0.000000000000000E+000                                
   3.66800000000000       0.000000000000000E+000  0.000000000000000E+000        
  0.000000000000000E+000  0.000000000000000E+000  0.000000000000000E+000        
   1.00000000000000       0.000000000000000E+000                                
  4.190000000000000E-002  0.000000000000000E+000  0.000000000000000E+000        
  0.000000000000000E+000  0.000000000000000E+000  0.000000000000000E+000        
  0.000000000000000E+000   1.00000000000000                                     
    5    5                                                                      
   1.04600000000000        1.00000000000000       0.000000000000000E+000        
  0.000000000000000E+000  0.000000000000000E+000  0.000000000000000E+000        
  0.344000000000000       0.000000000000000E+000   1.00000000000000             
  0.000000000000000E+000  0.000000000000000E+000  0.000000000000000E+000        
   17.9570000000000       0.000000000000000E+000  0.000000000000000E+000        
   1.00000000000000       0.000000000000000E+000  0.000000000000000E+000        
   5.76000000000000       0.000000000000000E+000  0.000000000000000E+000        
  0.000000000000000E+000   1.00000000000000       0.000000000000000E+000        
  0.135000000000000       0.000000000000000E+000  0.000000000000000E+000        
  0.000000000000000E+000  0.000000000000000E+000   1.00000000000000             
    3    3                                                                      
  0.706000000000000        1.00000000000000       0.000000000000000E+000        
  0.000000000000000E+000                                                        
   11.7790000000000       0.000000000000000E+000   1.00000000000000             
  0.000000000000000E+000                                                        
  0.312000000000000       0.000000000000000E+000  0.000000000000000E+000        
   1.00000000000000                                                             
FINISH                                                                          
 
********************************************************************************
 ONE- AND TWO-ELECTRON INTEGRALS OVER SYMMETRY-ADAPTED AOS ARE CALCULATED.

  SPHERICAL HARMONICS ARE USED.
  
  INTEGRALS LESS THAN  0.10E-13 ARE NEGLECTED.

  NUCLEAR REPULSION ENERGY :   47.7261570190 A.U.
  @MOLECU-I, ONE ELECTRON INTEGRALS (CPU/WALL):        0.04/       0.05 SECONDS.
  @TWOEL-I,   13909546 INTEGRALS OF SYMMETRY TYPE  I I I I
  @TWOEL-I,   13034485 INTEGRALS OF SYMMETRY TYPE  I J I J
  @TWOEL-I,    6753492 INTEGRALS OF SYMMETRY TYPE  I I J J
  @TWOEL-I, TOTAL NUMBER OF 2-E INTEGRALS   33697523.
  @MOLECU-I, TWO ELECTRON INTEGRALS (CPU/WALL):       56.53/       9.43 SECONDS.
 @CHECKOUT-I, Total execution time (CPU/WALL):       56.58/       9.50 seconds.

Running with 14 threads/proc

--executable xvmol finished with status     0 in        9.54 seconds (walltime).
 --invoking executable--
/home/asmola/.local/bin/xvmol2ja
 @GETMEM-I,  Allocated    3814 MB of main memory.
 @CHECKOUT-I, Total execution time (CPU/WALL):        0.13/       0.05 seconds.
--executable xvmol2ja finished with status     0 in        0.08 seconds (walltime).
 --invoking executable--
/home/asmola/.local/bin/xvscf
  There are  157 functions in the AO basis.

  There are 2 irreducible representations.

       Irrep        # of functions
         1                104
         2                 53


  Parameters for SCF calculation: 
        SCF reference function:  RHF  
  Maximum number of iterations:  150
     Full symmetry point group: C s 
     Computational point group: C s 
        Initial density matrix: MOREAD                 
     SCF convergence tolerance: 10**(-10)
  DIIS convergence acceleration:  ON
          Latest start for DIIS:   8
                     DIIS order:   6

  Memory information:    1209746 words required.
  Fock matrices are constructed from AO integral file.
 @GETMEM-I,  Allocated       9 MB of main memory.
  Initialization and symmetry analysis required      0.001 seconds.

  @INITGES-I, Occupancies from core Hamiltonian:

          Alpha population by irrep:  10    3
           Beta population by irrep:  10    3


 total no. of electrons in initial guess :  0.000000000000000E+000
  --------------------------------------------------------------------
  Iteration         Total Energy            Largest Density Difference
  --------------------------------------------------------------------
       0            47.726157018983592              0.0000000000D+00
   current occupation vector 
    10  3
    10  3
       1          -366.672307679060964              0.1324882310D+02
   current occupation vector 
    10  3
    10  3
       2          -344.701011455821344              0.1320452274D+02
   current occupation vector 
    10  3
    10  3
       3          -422.626470038539424              0.1065270599D+02
   current occupation vector 
    10  3
    10  3
       4          -341.525380966996295              0.1066445791D+02
   current occupation vector 
    10  3
    10  3
       5          -422.358756182522768              0.1060254610D+02
   current occupation vector 
    10  3
    10  3
       6          -341.429001401638573              0.1060293678D+02
   current occupation vector 
    10  3
    10  3
       7          -422.350356970312987              0.1060087923D+02
   current occupation vector 
    10  3
    10  3
       8          -341.426142322989449              0.1060089006D+02
   current occupation vector 
    10  3
    10  3
       9          -445.159675883084162              0.8443696059D+01
   current occupation vector 
    10  3
    10  3
      10          -460.284446444510479              0.1648965966D+01
   current occupation vector 
    10  3
    10  3
      11          -463.450639526458758              0.3563420771D+00
   current occupation vector 
    10  3
    10  3
      12          -463.455298669045476              0.7249134445D-01
   current occupation vector 
    10  3
    10  3
      13          -466.853827531838306              0.3820462134D+00
   current occupation vector 
    10  3
    10  3
      14          -466.209139001602921              0.6627587048D-01
   current occupation vector 
    10  3
    10  3
      15          -396.814897330626195              0.7432593242D+01
   current occupation vector 
    10  3
    10  3
      16          -484.313253566308845              0.7432639227D+01
   current occupation vector 
    10  3
    10  3
      17          -519.527627705481564              0.2279913657D+01
   current occupation vector 
    10  3
    10  3
      18          -528.745403767909011              0.6514504457D+00
   current occupation vector 
    10  3
    10  3
      19          -533.593563693045326              0.8413527836D+00
   current occupation vector 
    10  3
    10  3
      20          -534.418339797237081              0.4043276314D+00
   current occupation vector 
    10  3
    10  3
      21          -534.607807031626862              0.6391337511D+00
   current occupation vector 
    10  3
    10  3
      22          -534.678872490151093              0.4263419537D+00
   current occupation vector 
    10  3
    10  3
      23          -534.684393590511718              0.5566446379D-01
   current occupation vector 
    10  3
    10  3
      24          -534.687296608321162              0.9164977793D-01
   current occupation vector 
    10  3
    10  3
      25          -534.687957037279034              0.4101408711D-01
   current occupation vector 
    10  3
    10  3
      26          -534.688040951873518              0.1499309559D-01
   current occupation vector 
    10  3
    10  3
      27          -534.688046271512349              0.3540380292D-02
   current occupation vector 
    10  3
    10  3
      28          -534.688046931254121              0.7672682999D-03
   current occupation vector 
    10  3
    10  3
      29          -534.688047082881440              0.4385399736D-03
   current occupation vector 
    10  3
    10  3
      30          -534.688047106488057              0.1834862549D-03
   current occupation vector 
    10  3
    10  3
      31          -534.688047110687307              0.7831134519D-04
   current occupation vector 
    10  3
    10  3
      32          -534.688047111512901              0.3572960196D-04
   current occupation vector 
    10  3
    10  3
      33          -534.688047111672404              0.1340343878D-04
   current occupation vector 
    10  3
    10  3
      34          -534.688047111713217              0.7156960807D-05
   current occupation vector 
    10  3
    10  3
      35          -534.688047111705828              0.2971442768D-05
   current occupation vector 
    10  3
    10  3
      36          -534.688047111717083              0.1366705757D-05
   current occupation vector 
    10  3
    10  3
      37          -534.688047111721403              0.3956696924D-06
   current occupation vector 
    10  3
    10  3
      38          -534.688047111719243              0.8878692911D-07
   current occupation vector 
    10  3
    10  3
      39          -534.688047111718674              0.6379214690D-07
   current occupation vector 
    10  3
    10  3
      40          -534.688047111711853              0.3159152218D-07
   current occupation vector 
    10  3
    10  3
      41          -534.688047111716173              0.2530025922D-07
   current occupation vector 
    10  3
    10  3
      42          -534.688047111715150              0.8176915922D-08
   current occupation vector 
    10  3
    10  3
      43          -534.688047111714241              0.4549004395D-08
   current occupation vector 
    10  3
    10  3
      44          -534.688047111713786              0.1009218265D-08
   current occupation vector 
    10  3
    10  3
      45          -534.688047111710830              0.2789152242D-09
   current occupation vector 
    10  3
    10  3
      46          -534.688047111712876              0.1143231065D-09
   current occupation vector 
    10  3
    10  3

  SCF has converged.

 Density matrix saved to file den.dat
 total electron number:   26.0000000000001     
     E(SCF)=      -534.688047111710716              0.7968599391D-10

  Eigenvector printing suppressed.

 @PUTMOS-I, Writing converged MOs to NEWMOS. 
 @PUTMOS-I, Symmetry   1 Full Blocks 26 Partial Blocksize   0
 @PUTMOS-I, Symmetry   2 Full Blocks 13 Partial Blocksize   1
 @PUTFOCK-I, Writing converged Fock matrix to NEWFOCK. 
 @PUTFOCK-I, Symmetry   1 Full Blocks 26 Partial Blocksize   0
 @PUTFOCK-I, Symmetry   2 Full Blocks 13 Partial Blocksize   1


 
  ORBITAL EIGENVALUES (ALPHA)  (1H = 27.2113834 eV)

       MO #        E(hartree)               E(eV)           FULLSYM    COMPSYM
       ----   --------------------   --------------------   -------   ---------
    1     1        -104.8896961873       -2854.1937376616     A'        A'  (1)
    2     2         -20.6745510339        -562.5831348073     A'        A'  (1)
    3     3         -10.6089187980        -288.6833568725     A'        A'  (1)
    4     4          -8.0754334775        -219.7437164777     A'        A'  (1)
    5     5          -8.0735450326        -219.6923292800     A'        A'  (1)
    6   105          -8.0732357602        -219.6839135499     A''       A'' (2)
    7     6          -1.3478456632         -36.6767451048     A'        A'  (1)
    8     7          -1.0268010671         -27.9406775131     A'        A'  (1)
    9   106          -0.6031968802         -16.4138215730     A''       A'' (2)
   10     8          -0.5926694424         -16.1273554253     A'        A'  (1)
   11     9          -0.5519702911         -15.0198752172     A'        A'  (1)
   12   107          -0.4365369854         -11.8787752779     A''       A'' (2)
   13    10          -0.3945299380         -10.7357054066     A'        A'  (1)
  +++++++++++++++++++++++++++++++++++++++++++++++++++++++++++++++++++++++++++++
   14    11          -0.0887953561          -2.4162444793     A'        A'  (1)
   15    12           0.0511863362           1.3928510204     A'        A'  (1)
   16    13           0.0762204694           2.0740644168     A'        A'  (1)
   17   108           0.1176107256           3.2003505461     A''       A'' (2)
   18    14           0.1177626831           3.2044855211     A'        A'  (1)
   19    15           0.1427851154           3.8853805182     A'        A'  (1)
   20    16           0.1622396232           4.4147645903     A'        A'  (1)
   21    17           0.1759078340           4.7866955138     A'        A'  (1)
   22   109           0.1883054533           5.1240518850     A''       A'' (2)
   23    18           0.2269706029           6.1761840971     A'        A'  (1)
   24   110           0.2409240821           6.5558775673     A''       A'' (2)
   25    19           0.2687613249           7.3133674538     A'        A'  (1)
   26    20           0.2960972113           8.0572147404     A'        A'  (1)
   27    21           0.3425698184           9.3217986705     A'        A'  (1)
   28   111           0.3622272634           9.8567049411     A''       A'' (2)
   29    22           0.3813177647          10.3761838915     A'        A'  (1)
   30   112           0.4251081211          11.5677800708     A''       A'' (2)
   31    23           0.4519565864          12.2983639529     A'        A'  (1)
   32    24           0.5086277979          13.8404660170     A'        A'  (1)
   33    25           0.5763567451          15.6834643672     A'        A'  (1)
   34   113           0.6190235497          16.8444871437     A''       A'' (2)
   35    26           0.6285382382          17.1033949815     A'        A'  (1)
   36    27           0.6606124372          17.9761783082     A'        A'  (1)
   37   114           0.7132104149          19.4074420438     A''       A'' (2)
   38    28           0.7417121021          20.1830123827     A'        A'  (1)
   39    29           0.7661369029          20.8476450016     A'        A'  (1)
   40   115           0.7802323035          21.2312003508     A''       A'' (2)
   41    30           0.7816222165          21.2690218072     A'        A'  (1)
   42   116           0.7987767196          21.7358195686     A''       A'' (2)
   43    31           0.8160304887          22.2053184943     A'        A'  (1)
   44   117           0.8764858382          23.8503921866     A''       A'' (2)
   45    32           0.9106017942          24.7787345474     A'        A'  (1)
   46    33           0.9302443151          25.3132347143     A'        A'  (1)
   47   118           0.9307791119          25.3277872753     A''       A'' (2)
   48    34           0.9774830288          26.5986654642     A'        A'  (1)
   49   119           0.9809263786          26.6923637749     A''       A'' (2)
   50    35           0.9924691108          27.0064574859     A'        A'  (1)
   51    36           1.0103990988          27.4943572648     A'        A'  (1)
   52    37           1.0313422779          28.0642501405     A'        A'  (1)
   53   120           1.0429830887          28.3810127066     A''       A'' (2)
   54    38           1.0809520321          29.4142001830     A'        A'  (1)
   55    39           1.1221295410          30.5346971636     A'        A'  (1)
   56   121           1.1482024242          31.2441763870     A''       A'' (2)
   57    40           1.1896686794          32.3725305543     A'        A'  (1)
   58   122           1.2258943737          33.3582818119     A''       A'' (2)
   59    41           1.2540630454          34.1247903360     A'        A'  (1)
   60   123           1.3282358265          36.1431343215     A''       A'' (2)
   61    42           1.4189024490          38.6102985479     A'        A'  (1)
   62   124           1.5224323089          41.4274892570     A''       A'' (2)
   63    43           1.5246550679          41.4879736057     A'        A'  (1)
   64    44           1.6160101667          43.9738722255     A'        A'  (1)
   65    45           1.7019640248          46.3127956124     A'        A'  (1)
   66    46           1.7672209762          48.0885275358     A'        A'  (1)
   67   125           2.1271239147          57.8819843827     A''       A'' (2)
   68    47           2.1381485851          58.1819809143     A'        A'  (1)
   69   126           2.2205704867          60.4247948790     A''       A'' (2)
   70    48           2.2460242956          61.1174282338     A'        A'  (1)
   71   127           2.2876475144          62.2500535994     A''       A'' (2)
   72    49           2.3038308408          62.6904242976     A'        A'  (1)
   73    50           2.3165820411          63.0374020989     A'        A'  (1)
   74   128           2.3167932082          63.0431482469     A''       A'' (2)
   75    51           2.3476014724          63.8814837361     A'        A'  (1)
   76    52           2.3737628911          64.5933721294     A'        A'  (1)
   77   129           2.4302706927          66.1310275837     A''       A'' (2)
   78    53           2.4547910257          66.7982597661     A'        A'  (1)
   79   130           2.4765363008          67.3899787846     A''       A'' (2)
   80    54           2.4847889653          67.6145452024     A'        A'  (1)
   81   131           2.5036289212          68.1272064658     A''       A'' (2)
   82    55           2.5523697922          69.4535129932     A'        A'  (1)
   83    56           2.8236384169          76.8351075457     A'        A'  (1)
   84   132           2.9006218116          78.9299322126     A''       A'' (2)
   85    57           2.9267719880          79.6415146909     A'        A'  (1)
   86    58           2.9714004012          80.8559155527     A'        A'  (1)
   87   133           3.0522120109          83.0549112477     A''       A'' (2)
   88    59           3.0558999522          83.1552652326     A'        A'  (1)
   89   134           3.0867026457          83.9934491350     A''       A'' (2)
   90    60           3.1225138544          84.9679216647     A'        A'  (1)
   91    61           3.1945057244          86.9269200391     A'        A'  (1)
   92   135           3.3692070036          91.6807835284     A''       A'' (2)
   93    62           3.3738565984          91.8073054362     A'        A'  (1)
   94    63           3.3847892823          92.1047988894     A'        A'  (1)
   95   136           3.7790777233         102.8339328266     A''       A'' (2)
   96    64           3.7828793229         102.9373796115     A'        A'  (1)
   97    65           3.8061515707         103.5706496675     A'        A'  (1)
   98   137           3.8405059121         104.5054788237     A''       A'' (2)
   99    66           3.9188035959         106.6360671185     A'        A'  (1)
  100   138           4.0006194596         108.8623899525     A''       A'' (2)
  101    67           4.0073498819         109.0455340550     A'        A'  (1)
  102    68           4.0483626039         110.1615469556     A'        A'  (1)
  103   139           4.1818221286         113.7931652506     A''       A'' (2)
  104    69           4.2442745693         115.4925825596     A'        A'  (1)
  105    70           4.5775868107         124.5624697515     A'        A'  (1)
  106    71           5.1162143194         139.2192694023     A'        A'  (1)
  107    72           5.8205796032         158.3860231917     A'        A'  (1)
  108   140           6.5350491721         177.8277285598     A''       A'' (2)
  109    73           6.5666412497         178.6873926958     A'        A'  (1)
  110   141           6.5818303515         179.1007091687     A''       A'' (2)
  111    74           6.6529186215         181.0351193382     A'        A'  (1)
  112   142           6.7647866403         184.0792028884     A''       A'' (2)
  113    75           6.8103828055         185.3199376204     A'        A'  (1)
  114    76           6.9046929782         187.8862478904     A'        A'  (1)
  115   143           7.0458520238         191.7273807980     A''       A'' (2)
  116    77           7.0776126318         192.5916308794     A'        A'  (1)
  117   144           7.1626157908         194.9046844315     A''       A'' (2)
  118    78           7.1760526838         195.2703208774     A'        A'  (1)
  119    79           7.6237111566         207.4517272137     A'        A'  (1)
  120   145          10.3473497583         281.5657014472     A''       A'' (2)
  121    80          10.3542905215         281.7545692168     A'        A'  (1)
  122   146          10.3865586489         282.6326296009     A''       A'' (2)
  123    81          10.4127119630         283.3442974584     A'        A'  (1)
  124    82          10.5876751074         288.1052866615     A'        A'  (1)
  125   147          12.6765242233         344.9457608203     A''       A'' (2)
  126    83          12.7092913548         345.8373997990     A'        A'  (1)
  127    84          13.1731467625         358.4595471400     A'        A'  (1)
  128    85          18.2210390775         495.8196802846     A'        A'  (1)
  129   148          26.0363394787         708.4848158875     A''       A'' (2)
  130    86          26.1650547355         711.9873360897     A'        A'  (1)
  131    87          26.5540591317         722.5726838589     A'        A'  (1)
  132    88          28.6479486341         779.5503139054     A'        A'  (1)
  133   149          36.8958515106        1003.9871613249     A''       A'' (2)
  134    89          36.8968502942        1004.0143396090     A'        A'  (1)
  135    90          36.8977988050        1004.0401498991     A'        A'  (1)
  136   150          36.8983475426        1004.0550818091     A''       A'' (2)
  137   151          36.9047452626        1004.2291726210     A''       A'' (2)
  138    91          36.9049326271        1004.2342710666     A'        A'  (1)
  139    92          36.9106079835        1004.3887053648     A'        A'  (1)
  140   152          43.8530100437        1193.3010695419     A''       A'' (2)
  141    93          43.8613095007        1193.5269092486     A'        A'  (1)
  142    94          43.8784186734        1193.9924735080     A'        A'  (1)
  143   153          43.8915196844        1194.3489701403     A''       A'' (2)
  144    95          44.0391474282        1198.3661252773     A'        A'  (1)
  145   154          46.4818955521        1264.8366810274     A''       A'' (2)
  146    96          46.4858417138        1264.9440615461     A'        A'  (1)
  147   155          46.5070718232        1265.5217621932     A''       A'' (2)
  148    97          46.5216149401        1265.9175005209     A'        A'  (1)
  149    98          46.6103987769        1268.3334315444     A'        A'  (1)
  150   156          55.0146504234        1497.0247452892     A''       A'' (2)
  151    99          55.0524498517        1498.0533200249     A'        A'  (1)
  152   100          55.5952343104        1512.8232360321     A'        A'  (1)
  153   101         103.7367798552        2822.8212893206     A'        A'  (1)
  154   157         138.1998942463        3760.6103081764     A''       A'' (2)
  155   102         138.2913002618        3763.0975923077     A'        A'  (1)
  156   103         138.5671417681        3770.6036212930     A'        A'  (1)
  157   104         149.2927235763        4062.4615400659     A'        A'  (1)


  VSCF finished.

 @CHECKOUT-I, Total execution time (CPU/WALL):       76.49/      14.26 seconds.
--executable xvscf finished with status     0 in       14.29 seconds (walltime).
 --invoking executable--
/home/asmola/.local/bin/xvtran
 @GETMEM-I,  Allocated    3814 MB of main memory.
  Full RHF integral transformation
  Transformation of IIII integrals :
  1 pass through the AO integral file was required.
    13909546 AO integrals were read.
    15933126 MO integrals were written to HF2.
  Transformation of IIJJ integrals :
  1 pass through the AO integral file was required.
     6753492 AO integrals were read.
     7813260 MO integrals were written to HF2.
  Transformation of IJIJ integrals :
  1 pass through the AO integral file was required.
    13034485 AO integrals were read.
    15193828 MO integrals were written to HF2.
  Summary of active molecular orbitals: 
------------------------------------------------------------------------
 
  Index      Eigenvalue    Symmetry    Index      Eigenvalue    Symmetry
------------------------------------------------------------------------
     1      -104.8896962        1        80         7.0776126        1
     2       -20.6745510        1        81         7.1760527        1
     3       -10.6089188        1        82         7.6237112        1
     4        -8.0754335        1        83        10.3542905        1
     5        -8.0735450        1        84        10.4127120        1
     6        -1.3478457        1        85        10.5876751        1
     7        -1.0268011        1        86        12.7092914        1
     8        -0.5926694        1        87        13.1731468        1
     9        -0.5519703        1        88        18.2210391        1
    10        -0.3945299        1        89        26.1650547        1
    11        -8.0732358        2        90        26.5540591        1
    12        -0.6031969        2        91        28.6479486        1
    13        -0.4365370        2        92        36.8968503        1
    14        -0.0887954        1        93        36.8977988        1
    15         0.0511863        1        94        36.9049326        1
    16         0.0762205        1        95        36.9106080        1
    17         0.1177627        1        96        43.8613095        1
    18         0.1427851        1        97        43.8784187        1
    19         0.1622396        1        98        44.0391474        1
    20         0.1759078        1        99        46.4858417        1
    21         0.2269706        1       100        46.5216149        1
    22         0.2687613        1       101        46.6103988        1
    23         0.2960972        1       102        55.0524499        1
    24         0.3425698        1       103        55.5952343        1
    25         0.3813178        1       104       103.7367799        1
    26         0.4519566        1       105       138.2913003        1
    27         0.5086278        1       106       138.5671418        1
    28         0.5763567        1       107       149.2927236        1
    29         0.6285382        1       108         0.1176107        2
    30         0.6606124        1       109         0.1883055        2
    31         0.7417121        1       110         0.2409241        2
    32         0.7661369        1       111         0.3622273        2
    33         0.7816222        1       112         0.4251081        2
    34         0.8160305        1       113         0.6190235        2
    35         0.9106018        1       114         0.7132104        2
    36         0.9302443        1       115         0.7802323        2
    37         0.9774830        1       116         0.7987767        2
    38         0.9924691        1       117         0.8764858        2
    39         1.0103991        1       118         0.9307791        2
    40         1.0313423        1       119         0.9809264        2
    41         1.0809520        1       120         1.0429831        2
    42         1.1221295        1       121         1.1482024        2
    43         1.1896687        1       122         1.2258944        2
    44         1.2540630        1       123         1.3282358        2
    45         1.4189024        1       124         1.5224323        2
    46         1.5246551        1       125         2.1271239        2
    47         1.6160102        1       126         2.2205705        2
    48         1.7019640        1       127         2.2876475        2
    49         1.7672210        1       128         2.3167932        2
    50         2.1381486        1       129         2.4302707        2
    51         2.2460243        1       130         2.4765363        2
    52         2.3038308        1       131         2.5036289        2
    53         2.3165820        1       132         2.9006218        2
    54         2.3476015        1       133         3.0522120        2
    55         2.3737629        1       134         3.0867026        2
    56         2.4547910        1       135         3.3692070        2
    57         2.4847890        1       136         3.7790777        2
    58         2.5523698        1       137         3.8405059        2
    59         2.8236384        1       138         4.0006195        2
    60         2.9267720        1       139         4.1818221        2
    61         2.9714004        1       140         6.5350492        2
    62         3.0559000        1       141         6.5818304        2
    63         3.1225139        1       142         6.7647866        2
    64         3.1945057        1       143         7.0458520        2
    65         3.3738566        1       144         7.1626158        2
    66         3.3847893        1       145        10.3473498        2
    67         3.7828793        1       146        10.3865586        2
    68         3.8061516        1       147        12.6765242        2
    69         3.9188036        1       148        26.0363395        2
    70         4.0073499        1       149        36.8958515        2
    71         4.0483626        1       150        36.8983475        2
    72         4.2442746        1       151        36.9047453        2
    73         4.5775868        1       152        43.8530100        2
    74         5.1162143        1       153        43.8915197        2
    75         5.8205796        1       154        46.4818956        2
    76         6.5666412        1       155        46.5070718        2
    77         6.6529186        1       156        55.0146504        2
    78         6.8103828        1       157       138.1998942        2
    79         6.9046930        1
------------------------------------------------------------------------
  -104.889696187281       -20.6745510339364       -10.6089187980229     
  -8.07543347751020       -8.07354503262767       -1.34784566318041     
  -1.02680106712717      -0.592669442352449      -0.551970291125097     
 -0.394529938032506       -8.07323576021805      -0.603196880208911     
 -0.436536985396297      -8.879535611318137E-002  5.118633624657336E-002
  7.622046943750137E-002  0.117762683137452       0.142785115373580     
  0.162239623226923       0.175907833990719       0.226970602939182     
  0.268761324856288       0.296097211302118       0.342569818428330     
  0.381317764662915       0.451956586409674       0.508627797915949     
  0.576356745139885       0.628538238210595       0.660612437228026     
  0.741712102102840       0.766136902895461       0.781622216501384     
  0.816030488705873       0.910601794224001       0.930244315116654     
  0.977483028818636       0.992469110771250        1.01039909881289     
   1.03134227789735        1.08095203211899        1.12212954096391     
   1.18966867940606        1.25406304539539        1.41890244903411     
   1.52465506791181        1.61601016674071        1.70196402482190     
   1.76722097619770        2.13814858506330        2.24602429561835     
   2.30383084079501        2.31658204113601        2.34760147240709     
   2.37376289106250        2.45479102565837        2.48478896528203     
   2.55236979216742        2.82363841691750        2.92677198803968     
   2.97140040122525        3.05589995224726        3.12251385443147     
   3.19450572436204        3.37385659841824        3.38478928231991     
   3.78287932290351        3.80615157065054        3.91880359594402     
   4.00734988192594        4.04836260385068        4.24427456928028     
   4.57758681065483        5.11621431941889        5.82057960315787     
   6.56664124969752        6.65291862148226        6.81038280547010     
   6.90469297824983        7.07761263175617        7.17605268379804     
   7.62371115662100        10.3542905215477        10.4127119629808     
   10.5876751073789        12.7092913548452        13.1731467625429     
   18.2210390775147        26.1650547355017        26.5540591316967     
   28.6479486340795        36.8968502942414        36.8977988050063     
   36.9049326270779        36.9106079834531        43.8613095006624     
   43.8784186734131        44.0391474281798        46.4858417138053     
   46.5216149400515        46.6103987768751        55.0524498517385     
   55.5952343103617        103.736779855177        138.291300261777     
   138.567141768068        149.292723576335       0.117610725594967     
  0.188305453262853       0.240924082062441       0.362227263355513     
  0.425108121138710       0.619023549671124       0.713210414865400     
  0.780232303468809       0.798776719622548       0.876485838150964     
  0.930779111923305       0.980926378586776        1.04298308871168     
   1.14820242424572        1.22589437374550        1.32823582653622     
   1.52243230886272        2.12712391471898        2.22057048665150     
   2.28764751443729        2.31679320820074        2.43027069265720     
   2.47653630078391        2.50362892118728        2.90062181155330     
   3.05221201093635        3.08670264574071        3.36920700358140     
   3.77907772328064        3.84050591208368        4.00061945959478     
   4.18182212855172        6.53504917209803        6.58183035151037     
   6.76478664030050        7.04585202375350        7.16261579084078     
   10.3473497583087        10.3865586488684        12.6765242233267     
   26.0363394787012        36.8958515106190        36.8983475426362     
   36.9047452626386        43.8530100436549        43.8915196843784     
   46.4818955521166        46.5070718232290        55.0146504234419     
   138.199894246333     
 @CHECKOUT-I, Total execution time (CPU/WALL):       33.91/      19.80 seconds.
--executable xvtran finished with status     0 in       19.87 seconds (walltime).
 --invoking executable--
/home/asmola/.local/bin/xintprc
 @GETMEM-I,  Allocated    3814 MB of main memory.
  Processing integrals for CCSD calculation.
  @GMOIAA-I, Processing MO integrals for spin case AA.
  @GMOIAA-I, Generation of integral list completed.
                      TYPE                NUMBER
                      ----               --------
                      PPPP              27524020
                      PPPH               9932000
                      PPHH                900748
                      PHPH                491140
                      PHHH                 89950
                      HHHH                  2356

                     TOTAL              38940214

  @FORMT2-I, Second-order MP correlation energies:
            ------------------------------------------------
            E(SCF)                  =   -534.688047111711 a.u.
            E2(AA)                  =     -0.113294774913 a.u.
            E2(AB)                  =     -0.683104690936 a.u.
            E2(TOT)                 =     -0.909694240762 a.u.
            Total MP2 energy        =   -535.597741352473 a.u.
            ------------------------------------------------
   Largest T2 amplitudes for spin case AB:
       _       _                 _       _                 _       _
   i   j   a   b             i   j   a   b             i   j   a   b
-----------------------------------------------------------------------------
[ 10  10  14  14]-0.17891 [ 10   9  14  14]-0.08291 [  9  10  14  14]-0.08291
[  9   9  14  14]-0.07064 [  8   8  19  19]-0.04256 [  9   8  14  19]-0.03564
[  8   9  19  14]-0.03564 [ 10  10  15  14] 0.03456 [ 10  10  14  15] 0.03456
[  8   8  19  16] 0.02934 [  8   8  16  19] 0.02934 [ 10  10  23  14]-0.02560
[ 10  10  14  23]-0.02560 [  9   8  14  16] 0.02480 [  8   9  16  14] 0.02480
-----------------------------------------------------------------------------
   Norm of T2AB vector (  1799624 symmetry allowed elements):  0.4289812261.
-----------------------------------------------------------------------------
 @CHECKOUT-I, Total execution time (CPU/WALL):        6.10/      10.24 seconds.
--executable xintprc finished with status     0 in       10.40 seconds (walltime).
  calling xvcc 
 --invoking executable--
/home/asmola/.local/bin/xvcc
 @GETMEM-I,  Allocated    3814 MB of main memory.
   CCSD energy will be calculated.
   The total correlation energy is -0.909694240762 a.u.
   The total correlation energy is -0.883450307972 a.u.
  Convergence information after     1 iterations: 
  Largest element of residual vector :  0.51895813E-01.
  Largest element of DIIS residual   :  0.51895813E-01.
   The total correlation energy is -0.922034529027 a.u.
  Convergence information after     2 iterations: 
  Largest element of residual vector : -0.65821435E-01.
  Largest element of DIIS residual   : -0.48768432E-01.
   The total correlation energy is -0.917651023487 a.u.
  Convergence information after     3 iterations: 
  Largest element of residual vector : -0.28786609E-01.
  Largest element of DIIS residual   :  0.22973646E-01.
   The total correlation energy is -0.922966262235 a.u.
  Convergence information after     4 iterations: 
  Largest element of residual vector : -0.10745020E-01.
  Largest element of DIIS residual   :  0.27088952E-02.
   The total correlation energy is -0.925377012915 a.u.
  Convergence information after     5 iterations: 
  Largest element of residual vector :  0.33532738E-02.
  Largest element of DIIS residual   :  0.13915107E-02.
   The total correlation energy is -0.925501940397 a.u.
  Convergence information after     6 iterations: 
  Largest element of residual vector :  0.13423441E-02.
  Largest element of DIIS residual   :  0.13192865E-02.
   The total correlation energy is -0.925484028063 a.u.
  Convergence information after     7 iterations: 
  Largest element of residual vector :  0.67239773E-03.
  Largest element of DIIS residual   :  0.63387263E-03.
   The total correlation energy is -0.925511820298 a.u.
  Convergence information after     8 iterations: 
  Largest element of residual vector :  0.43730808E-03.
  Largest element of DIIS residual   :  0.21880185E-03.
   The total correlation energy is -0.925504194662 a.u.
  Convergence information after     9 iterations: 
  Largest element of residual vector :  0.17438041E-03.
  Largest element of DIIS residual   :  0.90658383E-04.
   The total correlation energy is -0.925514385568 a.u.
  Convergence information after    10 iterations: 
  Largest element of residual vector : -0.84741658E-04.
  Largest element of DIIS residual   : -0.85651818E-04.
   The total correlation energy is -0.925517896014 a.u.
  Convergence information after    11 iterations: 
  Largest element of residual vector :  0.52110652E-04.
  Largest element of DIIS residual   : -0.10953814E-04.
   The total correlation energy is -0.925518184429 a.u.
  Convergence information after    12 iterations: 
  Largest element of residual vector : -0.22920045E-04.
  Largest element of DIIS residual   :  0.92109968E-05.
   The total correlation energy is -0.925519210828 a.u.
  Convergence information after    13 iterations: 
  Largest element of residual vector : -0.56956356E-05.
  Largest element of DIIS residual   : -0.36229728E-05.
   The total correlation energy is -0.925519743846 a.u.
  Convergence information after    14 iterations: 
  Largest element of residual vector :  0.28764884E-05.
  Largest element of DIIS residual   : -0.20552834E-05.
   The total correlation energy is -0.925519484752 a.u.
  Convergence information after    15 iterations: 
  Largest element of residual vector : -0.66208296E-06.
  Largest element of DIIS residual   : -0.51672847E-06.
   The total correlation energy is -0.925519682200 a.u.
  Convergence information after    16 iterations: 
  Largest element of residual vector : -0.45264802E-06.
  Largest element of DIIS residual   : -0.44216703E-06.
   The total correlation energy is -0.925519646988 a.u.
  Convergence information after    17 iterations: 
  Largest element of residual vector :  0.25083679E-06.
  Largest element of DIIS residual   :  0.25669297E-06.
   The total correlation energy is -0.925519647423 a.u.
  Convergence information after    18 iterations: 
  Largest element of residual vector : -0.40047475E-06.
  Largest element of DIIS residual   : -0.16722120E-06.
   The total correlation energy is -0.925519648096 a.u.
  Convergence information after    19 iterations: 
  Largest element of residual vector : -0.96028472E-07.
  Largest element of DIIS residual   : -0.62681232E-07.
   The total correlation energy is -0.925519644597 a.u.
  Convergence information after    20 iterations: 
  Largest element of residual vector :  0.73054517E-07.
  Largest element of DIIS residual   :  0.31571111E-07.
   The total correlation energy is -0.925519642856 a.u.
  Convergence information after    21 iterations: 
  Largest element of residual vector :  0.25313790E-07.
  Largest element of DIIS residual   :  0.23268991E-07.
   The total correlation energy is -0.925519644335 a.u.
  Convergence information after    22 iterations: 
  Largest element of residual vector : -0.10654158E-07.
  Largest element of DIIS residual   :  0.73685920E-08.
   The total correlation energy is -0.925519642821 a.u.
  Convergence information after    23 iterations: 
  Largest element of residual vector :  0.55845079E-08.
  Largest element of DIIS residual   :  0.34361851E-08.
   The total correlation energy is -0.925519642966 a.u.
  Convergence information after    24 iterations: 
  Largest element of residual vector : -0.47879068E-08.
  Largest element of DIIS residual   : -0.36493231E-08.
   The total correlation energy is -0.925519642604 a.u.
  Convergence information after    25 iterations: 
  Largest element of residual vector :  0.35745256E-08.
  Largest element of DIIS residual   : -0.13135820E-08.
   The total correlation energy is -0.925519642659 a.u.
[...]
 term  0.441204487693546     
 final tnorm  0.685611407396781     
  norm contr. I: |<0|L dT/dx|0>|^2   0.000000000000000E+000
  norm contr. II: <0|[nabla(1+L)e-T][nabla e^T]|0>  0.441204487693546     
  total norm contribution  0.441204487693546     
 oo  2.310175987921902E-003
 vv  -1.47350266301955     
 vo -3.488556063092031E-002
  Correlated perturbed 1-el contribution to DBOC  -1.50607804766255       cm**-1
  SUM_I |dc_I/dx|^2 contribution to DBOC  0.759746322921340       cm**-1
 
 
  The total diagonal Born-Oppenheimer correction (DBOC) is:      0.0087881269 a.u.
  The total diagonal Born-Oppenheimer correction (DBOC) is:       1928.770919 cm-1
 
 Total CC energy including DBOC  -535.604778627404     
 First-order density matrix is being calculated  (Symmetry block 2, perturbation   3)
 Calculation of the contributions of <pq||rs> to dI(i,j)/dx required   3.5 seconds.
 Calculation of the contributions of <pq||rs> to dI(a,b)/dx required  10.1 seconds.
 Calculation of the contributions of <pq||rs> to dI(i,a)/dx required   6.3 seconds.
 First-order Z-vector equations are solved for 1 perturbation.
 Convergence reached after  25 iterations.
        U*G(pq,rs) contribution is being calculated
             (Symmetry block 2, perturbation   3)

 CCSD contribution to force constants 

        0.0000000000        0.0000000000        0.0000000000
        0.0000000000        0.0000000000        0.0000000000
        0.0000000000        0.0000000000        0.0000000000
        0.0000000000        0.0000000000        0.0000000000
        0.0000000000        0.0000000000        0.0000000000
        0.0000000000        0.0000000000        0.0000000000
        0.0000000000        0.0000000000        0.0000000000
        0.0000000000        0.0000000000        0.0000000000
        0.0000000000        0.0000000000        0.0000000000
        0.0000000000        0.0000000000        0.0000000000
        0.0000000000        0.0000000000        0.0000000000
        0.0000000000        0.0000000000        0.0000000000
        0.0000000000        0.0000000000        0.0000000000
        0.0000000000        0.0000000000        0.0000000000
        0.0000000000        0.0000000000        0.0000000000
        0.0000000000        0.0000000000        0.0000000000
        0.0000000000        0.0000000000        0.0000000000
        0.0000000000        0.0000000000        0.0000000000
        0.0000000000        0.0000000000        0.0000000000
        0.0000000000        0.0000000000        0.0000000000
        0.0000000000        0.0000000000        0.0000000000
        0.0000000000        0.0000000000        0.0000000000
        0.0000000000        0.0000000000        0.0000000000
        0.0000000000        0.0000000000        0.0000000000
        0.0000000000        0.0000000000        0.0000000000
        0.0000000000        0.0000000000        0.0000000000
        0.0440472712        0.0023676858       -0.0464149570

 CCSD contribution to dipole derivatives 

        0.0000000000        0.0000000000        0.0000000000
        0.0000000000        0.0000000000        0.0000000000
        0.0000000000        0.0000000000        0.0000000000
        0.0000000000        0.0000000000        0.0000000000
        0.0000000000        0.0000000000        0.0000000000
        0.0000000000        0.0000000000        0.0000000000
        0.0000000000        0.0000000000        0.0000000000
        0.0000000000        0.0000000000        0.0000000000
        0.0000000000        0.0000000000        0.0281238057
 @CHECKOUT-I, Total execution time (CPU/WALL):     1202.96/     291.43 seconds.
--executable xsdcc finished with status     0 in      291.60 seconds (walltime).
 --invoking executable--
/home/asmola/.local/bin/xanti
 @GETMEM-I,  Allocated    3814 MB of main memory.
 CCSD MO derivative gammas will be sorted to Mulliken order.
 @CHECKOUT-I, Total execution time (CPU/WALL):        6.34/       4.95 seconds.
--executable xanti finished with status     0 in        5.08 seconds (walltime).
 --invoking executable--
/home/asmola/.local/bin/xbcktrn
 @GETMEM-I,  Allocated    3814 MB of main memory.
 CCSD MO derivative gammas will be transformed to the AO basis.
 @CHECKOUT-I, Total execution time (CPU/WALL):       14.01/       3.02 seconds.
--executable xbcktrn finished with status     0 in        3.09 seconds (walltime).
 --invoking executable--
/home/asmola/.local/bin/xvdint
 @GETMEM-I,  Allocated    3814 MB of main memory.
 One- and two-electron integral derivatives are calculated
 for RHF-CC/MBPT hessians and dipole derivatives.
 Spherical gaussians are used.
  magnet F F
 Evaluation of 2el integral derivatives

                      Two-electron integral gradient
                      ------------------------------

                         O #1 x     0.0000000000
                         O #1 y     0.0000000000
                         H #2 x     0.0000000000
                         H #2 y     0.0000000000
                         CL#3 x     0.0000000000
                         CL#3 y     0.0000000000


 O #1       0.0000000000            0.0000000000           -0.0913631026
 H #2       0.0000000000            0.0000000000           -0.0007541448
 CL#3       0.0000000000            0.0000000000            0.0921172475


 Evaluation of 2e integral derivatives required  107.06 seconds.
  contribution to Hessian
        0.0000000000        0.0000000000        0.0000000000
        0.0000000000        0.0000000000        0.0000000000
       -0.0913631026       -0.0007541448        0.0921172475
 @CHECKOUT-I, Total execution time (CPU/WALL):      107.22/      19.63 seconds.
--executable xvdint finished with status     0 in       19.73 seconds (walltime).
 --invoking executable--
/home/asmola/.local/bin/xanti
 @GETMEM-I,  Allocated    3814 MB of main memory.
 CCSD MO gammas will be sorted to Mulliken order.
 @CHECKOUT-I, Total execution time (CPU/WALL):        8.91/      17.64 seconds.
--executable xanti finished with status     0 in       17.74 seconds (walltime).
 --invoking executable--
/home/asmola/.local/bin/xbcktrn
 @GETMEM-I,  Allocated    3814 MB of main memory.
 CCSD MO gammas will be transformed to the AO basis.
 @CHECKOUT-I, Total execution time (CPU/WALL):       17.56/       3.58 seconds.
--executable xbcktrn finished with status     0 in        3.66 seconds (walltime).
 --invoking executable--
/home/asmola/.local/bin/xvdint
 @GETMEM-I,  Allocated    3814 MB of main memory.
 One- and two-electron integral derivatives are calculated
 for RHF-CC/MBPT hessians and dipole derivatives.
 Spherical gaussians are used.
  magnet F F

                     Kinetic energy integral gradient
                     --------------------------------

                         O #1 x     0.3632271289
                         O #1 y    -0.0608262924
                         H #2 x     0.0133531352
                         H #2 y     0.0305579394
                         CL#3 x    -0.3765802641
                         CL#3 y     0.0302683529


 O #1       0.3632271289           -0.0608262924            0.0000000000
 H #2       0.0133531352            0.0305579394            0.0000000000
 CL#3      -0.3765802641            0.0302683529            0.0000000000



                   Nuclear attraction integral gradient
                   ------------------------------------

                         O #1 x   -26.3306477601
                         O #1 y     4.3805551126
                         H #2 x    -1.3538203827
                         H #2 y    -2.0307779543
                         CL#3 x    27.6844681428
                         CL#3 y    -2.3497771584


 O #1     -26.3306477601            4.3805551126            0.0000000000
 H #2      -1.3538203827           -2.0307779543            0.0000000000
 CL#3      27.6844681428           -2.3497771584            0.0000000000



                      Reorthonormalization gradient
                      -----------------------------

                         O #1 x     0.0000000000
                         O #1 y     0.0000000000
                         H #2 x     0.0000000000
                         H #2 y     0.0000000000
                         CL#3 x     0.0000000000
                         CL#3 y     0.0000000000


 O #1       0.0000000000            0.0000000000            0.0000000000
 H #2       0.0000000000            0.0000000000            0.0000000000
 CL#3       0.0000000000            0.0000000000            0.0000000000



                     Kinetic energy integral Hessian
                     -------------------------------


           Symmetry 1

           O #1 x      O #1 y      H #2 x      H #2 y      CL#3 x      CL#3 y

 O #1 x    0.406208
 O #1 y   -0.040165   -0.208819
 H #2 x   -0.001042   -0.022955   -0.002356
 H #2 y   -0.022955   -0.034365    0.021333    0.034548
 CL#3 x   -0.405167    0.063120    0.003397    0.001623    0.401769
 CL#3 y    0.063120    0.243184    0.001623   -0.000183   -0.064743   -0.243001


           Symmetry 2

           O #1 z      H #2 z      CL#3 z

 O #1 z   -0.238833
 H #2 z    0.011491   -0.010943
 CL#3 z    0.227342   -0.000548   -0.226795




           O #1 x      O #1 y      O #1 z      H #2 x      H #2 y      H #2 z

 O #1 x    0.406208
 O #1 y   -0.040165   -0.208819
 O #1 z    0.000000    0.000000   -0.238833

 H #2 x   -0.001042   -0.022955    0.000000   -0.002356
 H #2 y   -0.022955   -0.034365    0.000000    0.021333    0.034548
 H #2 z    0.000000    0.000000    0.011491    0.000000    0.000000   -0.010943

 CL#3 x   -0.405167    0.063120    0.000000    0.003397    0.001623    0.000000
 CL#3 y    0.063120    0.243184    0.000000    0.001623   -0.000183    0.000000
 CL#3 z    0.000000    0.000000    0.227342    0.000000    0.000000   -0.000548


           CL#3 x      CL#3 y      CL#3 z

 CL#3 x    0.401769
 CL#3 y   -0.064743   -0.243001
 CL#3 z    0.000000    0.000000   -0.226795




                   Nuclear attraction integral Hessian
                   -----------------------------------


           Symmetry 1

           O #1 x      O #1 y      H #2 x      H #2 y      CL#3 x      CL#3 y

 O #1 x  -14.281030
 O #1 y    2.298415   10.118634
 H #2 x   -0.248192    0.563154    0.182550
 H #2 y    0.553869    0.564708   -0.796823   -0.690886
 CL#3 x   14.529222   -2.861569    0.065642    0.242954  -14.594864
 CL#3 y   -2.852284  -10.683342    0.233669    0.126179    2.618614   10.557164


           Symmetry 2

           O #1 z      H #2 z      CL#3 z

 O #1 z   10.578802
 H #2 z   -0.549223    0.671486
 CL#3 z  -10.029579   -0.122263   10.151841




           O #1 x      O #1 y      O #1 z      H #2 x      H #2 y      H #2 z

 O #1 x  -14.281030
 O #1 y    2.298415   10.118634
 O #1 z    0.000000    0.000000   10.578802

 H #2 x   -0.248192    0.563154    0.000000    0.182550
 H #2 y    0.553869    0.564708    0.000000   -0.796823   -0.690886
 H #2 z    0.000000    0.000000   -0.549223    0.000000    0.000000    0.671486

 CL#3 x   14.529222   -2.861569    0.000000    0.065642    0.242954    0.000000
 CL#3 y   -2.852284  -10.683342    0.000000    0.233669    0.126179    0.000000
 CL#3 z    0.000000    0.000000  -10.029579    0.000000    0.000000   -0.122263


           CL#3 x      CL#3 y      CL#3 z

 CL#3 x  -14.594864
 CL#3 y    2.618614   10.557164
 CL#3 z    0.000000    0.000000   10.151841




                Highest order reorthonormalization Hessian
                ------------------------------------------


           Symmetry 1

           O #1 x      O #1 y      H #2 x      H #2 y      CL#3 x      CL#3 y

 O #1 x    0.000000
 O #1 y    0.000000    0.000000
 H #2 x    0.000000    0.000000    0.000000
 H #2 y    0.000000    0.000000    0.000000    0.000000
 CL#3 x    0.000000    0.000000    0.000000    0.000000    0.000000
 CL#3 y    0.000000    0.000000    0.000000    0.000000    0.000000    0.000000


           Symmetry 2

           O #1 z      H #2 z      CL#3 z

 O #1 z    0.000000
 H #2 z    0.000000    0.000000
 CL#3 z    0.000000    0.000000    0.000000




           O #1 x      O #1 y      O #1 z      H #2 x      H #2 y      H #2 z


           CL#3 x      CL#3 y      CL#3 z




                Electronic contributions to dipole moment
                -----------------------------------------

                               au             Debye

                    x      2.41456078      6.13720241
                    y      1.24286229      3.15904138

  Conversion factor used: 1 a.u. =   2.54174691 Debye 



   Electronic contributions to static part of dipole moment derivatives
   --------------------------------------------------------------------


                     Total dipole moment derivatives
                     -------------------------------


           Symmetry 1
                              Ex             Ey

               O #1 x    -8.47404137    -0.05872423
               O #1 y    -0.20477562    -8.54128499
               H #2 x    -0.77162054     0.02873278
               H #2 y     0.22874115    -0.70362027
               CL#3 x   -16.75433809     0.02999145
               CL#3 y    -0.02396552   -16.75509474

           Symmetry 2
                              Ez

               O #1 z    -8.31279996
               H #2 z    -0.88055818
               CL#3 z   -16.80664186



                       Ex          Ey          Ez

      O #1    x   -8.474041   -0.058724    0.000000
      O #1    y   -0.204776   -8.541285    0.000000
      O #1    z    0.000000    0.000000   -8.312800

      H #2    x   -0.771621    0.028733    0.000000
      H #2    y    0.228741   -0.703620    0.000000
      H #2    z    0.000000    0.000000   -0.880558

      CL#3    x  -16.754338    0.029991    0.000000
      CL#3    y   -0.023966  -16.755095    0.000000
      CL#3    z    0.000000    0.000000  -16.806642

 Evaluation of 1e integral derivatives required    1.61 seconds.
 Evaluation of 2el integral derivatives

                      Two-electron integral gradient
                      ------------------------------

                         O #1 x    12.6322494337
                         O #1 y    -2.2280356398
                         H #2 x     0.6872109233
                         H #2 y     1.1675382953
                         CL#3 x   -13.3194603570
                         CL#3 y     1.0604973445


 O #1      12.6322494337           -2.2280356398            0.0000000000
 H #2       0.6872109233            1.1675382953            0.0000000000
 CL#3     -13.3194603570            1.0604973445            0.0000000000


 Evaluation of 2e integral derivatives required  301.44 seconds.

                            Molecular gradient
                            ------------------

                         O #1 x    -0.1803716715
                         O #1 y     0.0933365471
                         H #2 x    -0.0294830863
                         H #2 y    -0.0764757900
                         CL#3 x     0.2098547577
                         CL#3 y    -0.0168607571


 O #1      -0.1803716715            0.0933365471            0.0000000000
 H #2      -0.0294830863           -0.0764757900            0.0000000000
 CL#3       0.2098547577           -0.0168607571            0.0000000000


  Molecular gradient norm 0.304E+00

                            Molecular hessian
                            -----------------


           Symmetry 1

           O #1 x      O #1 y      H #2 x      H #2 y      CL#3 x      CL#3 y

 O #1 x    2.058052
 O #1 y   -0.316182   -0.066907
 H #2 x   -0.268492   -0.549895    0.196273
 H #2 y   -0.521152   -1.341842    0.492187    1.222115
 CL#3 x   -1.789560    1.423237   -0.043959   -0.066306    1.833519
 CL#3 y    0.837334    1.408749    0.007523    0.012355   -0.844856   -1.421104


           Symmetry 2

           O #1 z      H #2 z      CL#3 z

 O #1 z    0.222034
 H #2 z   -0.057689    0.021711
 CL#3 z   -0.164345    0.003192    0.161153




           O #1 x      O #1 y      O #1 z      H #2 x      H #2 y      H #2 z

 O #1 x    2.058052
 O #1 y   -0.316182   -0.066907
 O #1 z    0.000000    0.000000    0.222034

 H #2 x   -0.268492   -0.549895    0.000000    0.196273
 H #2 y   -0.521152   -1.341842    0.000000    0.492187    1.222115
 H #2 z    0.000000    0.000000   -0.057689    0.000000    0.000000    0.021711

 CL#3 x   -1.789560    1.423237    0.000000   -0.043959   -0.066306    0.000000
 CL#3 y    0.837334    1.408749    0.000000    0.007523    0.012355    0.000000
 CL#3 z    0.000000    0.000000   -0.164345    0.000000    0.000000    0.003192


           CL#3 x      CL#3 y      CL#3 z

 CL#3 x    1.833519
 CL#3 y   -0.844856   -1.421104
 CL#3 z    0.000000    0.000000    0.161153




                           Total dipole moment
                           -------------------

                               au             Debye

                    x      0.06772417      0.17213771
                    y     -0.38182658     -0.97050654

  Conversion factor used: 1 a.u. =   2.54174691 Debye 



                     Total dipole moment derivatives
                     -------------------------------


           Symmetry 1
                              Ex             Ey

               O #1 x     0.39046870     0.27044777
               O #1 y     0.14123472     0.04460952
               H #2 x    -0.02899615    -0.14890483
               H #2 y    -0.22640763    -0.16822972
               CL#3 x    -0.36147254    -0.12154336
               CL#3 y     0.08517239     0.12361966

           Symmetry 2
                              Ez

               O #1 z    -0.16907891
               H #2 z     0.09797433
               CL#3 z     0.07110465



                       Ex          Ey          Ez

      O #1    x    0.390469    0.270448    0.000000
      O #1    y    0.141235    0.044610    0.000000
      O #1    z    0.000000    0.000000   -0.169079

      H #2    x   -0.028996   -0.148905    0.000000
      H #2    y   -0.226408   -0.168230    0.000000
      H #2    z    0.000000    0.000000    0.097974

      CL#3    x   -0.361473   -0.121543    0.000000
      CL#3    y    0.085172    0.123620    0.000000
      CL#3    z    0.000000    0.000000    0.071105

  Molecular gradient does not satisfy rotational invariance condition.
   rotational invariance in yz-plane :        0.0000E+00
   rotational invariance in xz-plane :        0.0000E+00
   rotational invariance in xy-plane :        -.3678E-01
 @CHECKOUT-I, Total execution time (CPU/WALL):      303.11/      44.64 seconds.
--executable xvdint finished with status     0 in       44.74 seconds (walltime).
 --invoking executable--
/home/asmola/.local/bin/xjoda
  @GTFLGS-I, Hessian will be transformed to curvilinear coordinates.
  @GTFLGS-I, Hessian will be transformed to curvilinear coordinates.
  igrd and ihes are                      0                     1
  gradient from JOBARC 
  -0.180371671457150   0.093336547074071   0.000000000000000
  -0.029483086279813  -0.076475789982406   0.000000000000000
   0.209854757736926  -0.016860757091670   0.000000000000000
 
  @PROJFCM-I, Projecting force constant matrix onto totally symmetric subspace.
  Largest difference between matrix elements of symmetrized
  and unsymmetrized FCM :     0.0000000000E+00.
 
  Summary of diagonal Born-Oppenheimer correction at the correlated level
  The total diagonal Born-Oppenheimer correction (DBOC) is:      0.0087881269 a.u.
  The total diagonal Born-Oppenheimer correction (DBOC) is:       1928.770919 cm-1
  The total diagonal Born-Oppenheimer correction (DBOC) is:            23.073 kJ/mole
  hellooooooo 
  readis is  F
 
 @CHECKOUT-I, Total execution time (CPU/WALL):        0.01/       0.06 seconds.
--executable xjoda finished with status     0 in        0.10 seconds (walltime).
  The final electronic energy is      -535.604778627403675 a.u. 
  This computation required                         3065.20 seconds (walltime).
