 --invoking executable--
/home/asmola/.local/bin/xjoda


   *************************************************************************
         <<<     CCCCCC     CCCCCC   |||     CCCCCC     CCCCCC   >>>
       <<<      CCC        CCC       |||    CCC        CCC         >>>
      <<<      CCC        CCC        |||   CCC        CCC            >>>
    <<<        CCC        CCC        |||   CCC        CCC              >>>
      <<<      CCC        CCC        |||   CCC        CCC            >>>
       <<<      CCC        CCC       |||    CCC        CCC         >>>
         <<<     CCCCCC     CCCCCC   |||     CCCCCC     CCCCCC   >>>
   *************************************************************************

     ****************************************************************
     * CFOUR Coupled-Cluster techniques for Computational Chemistry *
     ****************************************************************
 

   Department of Chemistry                Institut fuer Physikalische Chemie
   University of Florida                  Universitaet Mainz
   Gainesville, FL 32611, USA             D-55099 Mainz, Germany

   Department of Chemistry                Fakultaet fuer Chemie und Biowiss.
   Johns Hopkins University               Karlsruher Institut fuer Technologie
   Baltimore, MD 21218, USA               D-76131 Karlsruhe, Germany

   Department of Chemistry                Department of Physical Chemistry
   Southern Methodist University          Eotvos Lorand University
   Dallas, TX 75275, USA                  H-1053 Budapest, Hungary

 
                       Version 2.1
 
                     vincent.theory.phys.ucl.ac.uk                     
                     Thu 30 Jan 17:28:16 GMT 2025                      
                     integer*8 version is running
 
********************************************************************************
*                          Input from ZMAT file                                *
********************************************************************************
Hypochlorous acid DBOC calculation                                              
O                                                                               
H 1 ROH                                                                         
CL 1 ROCL 2 A                                                                   
                                                                                
ROH=1.5500000000000007                                                          
ROCL=1.683                                                                      
A=107.0                                                                         
                                                                                
                                                                                
*CFOUR(CALC=CCSD,BASIS=AUG-PCVTZ,SCF_CONV=10                                    
CC_CONV=10,DBOC=ON,MEMORY=500000000)                                            
                                                                                
%isotopes                                                                       
16                                                                              
1                                                                               
37                                                                              
********************************************************************************
  @GTFLGS-I, Hessian will be transformed to curvilinear coordinates.
    -------------------------------------------------------------------
                    CFOUR Control Parameters 
    -------------------------------------------------------------------
        External           Internal           Value            Units
          Name               Name
    -------------------------------------------------------------------
       ABCDTYPE             IABCDT         STANDARD    [  0]    ***   
       ANHARMONIC           IANHAR         OFF         [  0]    ***   
       ANH_ALGORIT          IANALG         STANDARD    [  0]    ***   
       ANH_DERIVAT          IANDER         SECOND      [  1]    ***   
       ANH_MODE             ANHMOD         VIBRATION   [  0]    ***   
       ANH_STEPSIZ          ICUBST             50000          x 10-6  
       ANH_SYMMETR          IANHSM         ABELIAN     [  0]    ***   
       AO_LADDERS           IAOLAD         SINGLEPASS  [  1]    ***   
       AV_SCF               IAVSCF         OFF         [  0]    ***   
       BASIS                IBASIS         AUG-PCVTZ   [ 51]    ***   
       BOTHVECTORS          BOTHVC         OFF         [  0]    ***   
       BOX_POTENT           IPIAB          OFF         [  0]    ***   
       BREIT                IBREIT         OFF         [  0]    ***   
       BRUCK_CONV           IBRTOL          10D-  4             ***   
       BRUECKNER            IBRKNR         OFF         [  0]    ***   
       BUFFERSIZE           IBUFFS              4096            ***   
       CACHE_RECS           ICHREC             10               ***   
       CALCLEVEL            ICLLVL         CCSD        [ 10]    ***   
       CCORBOPT             ICCORB         OFF         [  0]  x 0.01  
       CC_CONV              ICCCNV          10D- 10             ***   
       CC_EXPORDER          ICCEOR              5               ***   
       CC_EXTRAPOL          ICCEXT         DIIS        [  1]    ***   
       CC_GUESS             ICCGES         MP2         [  0]    ***   
       CC_MAXCYC            ICCCYC            100              cycles 
       CC_PROGRAM           ICCPRO         VCC         [  0]    ***   
       CHARGE               ICHRGE              0               ***   
       CHOLESKY             ICHOLE         OFF         [  0]    ***   
       CIS_CONV             ICISTL              5               ***   
       COMM_SIZE            IPSIZE            ***               ***   
       CONSTANT             ICONST         OLD         [  1]    ***   
       CONTINUUM            ICONTU         NONE        [  0]    ***   
       CONTRACTION          ICNTYP         GENERAL     [  1]    ***   
       COORDINATES          ICOORD         INTERNAL    [  0]    ***   
       CPHF_CONVER          ICPHFT          10D- 16             ***   
       CPHF_MAXCYC          ICPHFC             64              cycles 
       CUBIC                ICUBIC         OFF         [  0]    ***   
       CURVILINEAR          ICURVY         ON          [  1]    ***   
       DBOC                 IDBOC          ON          [  1]    ***   
       DCT                  IDCT           OFF         [  0]    ***   
       DERIV_LEV            IDRLVL         SECOND      [  2]    ***   
       DEVMEM_SIZE          IDVMEM          50000000           MByte  
       DIAG_MRCC            IEOMST          10D-  0             ***   
       DIFF_TYPE            IDIFTY         RELAXED     [  0]    ***   
       DIRECT               IDIRCT         OFF         [  0]    ***   
       DROPMO               IDRPMO      NONE         
       ECP                  IECP           OFF         [  0]    ***   
       EIGENVECTOR          IVEC                1               ***   
       EL_ANHARM            IELANH         OFF         [  0]    ***   
       EOMFOLLOW            IEOMSR         ENERGY      [  0]    ***   
       EOMIP                IEOMIP         OFF         [  0]    ***   
       EOMLEVEL             HBARFM         SAME        [  0]    ***   
       EOM_MRCC             IMRCCE         NEW         [  1]    ***   
       EOM_NONIT            EOMNON         OFF         [  0]    ***   
       EOM_NSING            IEOMSI          10D-  0             ***   
       EOM_NSTATES          IMRCCD         DAVIDSON    [  0]    ***   
       EOM_NTRIP            IEOMTR          10D-  0             ***   
       EOM_ORDER            IEXORD         ENERGY      [  0]    ***   
       EOM_PROPSTA          IEOMST              0               ***   
       ESTATE_CONV          IEXTOL          10D-  5             ***   
       ESTATE_DIAG          IEXDIG         ITERATIVE   [  0]    ***   
       ESTATE_LOCK          IESLOC         ON          [  1]    ***   
       ESTATE_MAXC          IEXMXC             40               ***   
       ESTATE_PROP          IEXPRP         OFF         [  0]    ***   
       EVAL_HESS            IRECAL              0            # of cyc.
       EXCITATION           IEXCIT              0               ***   
       EXCITE               IEXCIT         NONE        [  0]    ***   
       EXTERN_POT           IEXPOT         OFF         [  0]    ***   
       FCGRADNEW            IFCGNW         OFF         [  0]    ***   
       FC_FIELD             IFINFC              0             x 10-6  
       FD_CALTYPE           IFDCAL         GRADONLY    [  0]    ***   
       FD_PROJECT           IFDPRJ         OFF         [  1]    ***   
       FD_STEPSIZE          IDISFD              0            10-4 bohr
       FD_USEGROUP          IFDGRP         FULL        [  0]    ***   
       FILE_RECSIZ          IFLREC              4096           words  
       FINITE_PERT          IFIPER              0             x 10-6  
       FIXGEOM              IFIXGM         OFF         [  0]    ***   
       FOCK                 IFOCK          AO          [  1]    ***   
       FREQ_ALGORI          IVIALG         STANDARD    [  0]    ***   
       FROZEN_CORE          IFROCO         OFF         [  0]    ***   
       GAMMA_ABCD           IGABCD         STORE       [  0]    ***   
       GAMMA_ABCI           IGABCI         STORE       [  0]    ***   
       GENBAS_1             IGNBS1              0               ***   
       GENBAS_2             IGNBS2              0               ***   
       GENBAS_3             IGNBS3              0               ***   
       GENBAS_4             IGNBS4              0               ***   
       GEO_CONV             ICONTL              5              H/bohr 
       GEO_MAXCYC           IOPTCY             50               ***   
       GEO_MAXSTEP          IMXSTP            300            millibohr
       GEO_METHOD           INR            SINGLE_POINT[  5]    ***   
       GIAO                 IGIAO          OFF         [  1]    ***   
       GIMIC                IGIMIC         OFF         [  0]    ***   
       GRID                 IGRID          OFF         [  0]    ***   
       GRID_ALGO            IGALGO         SERIAL      [  0]    ***   
       GUESS                IGUESS         MOREAD      [  0]    ***   
       HBAR                 IHBAR          OFF         [  0]    ***   
       HESS_TYPE            IHESTP         SCF         [  0]    ***   
       HF2_FILE             IHF2Fl         USE         [  1]    ***   
       HFSTABILITY          ISTABL         OFF         [  0]    ***   
       INCORE               INCORE         OFF         [  0]    ***   
       INPUT_MRCC           IMRCC          ON          [  1]    ***   
       INTEGRALS            INTTYP         VMOL        [  1]    ***   
       JODA_PRINT           IJPRNT              0               ***   
       KEYWORD_OUT          IDMPKW         NO          [  0]    ***   
       LINDEP_TOL           ILINDP              8               ***   
       LINEQ_CONV           IZTACN          10D-  7           cycles  
       LINEQ_EXPOR          ILMAXD              5               ***   
       LINEQ_MAXCY          ILMAXC            100               ***   
       LINEQ_TYPE           ILTYPE         DIIS        [  1]    ***   
       LOCK_ORBOCC          ILOCOC         OFF         [  0]    ***   
       MEMORY_SIZE          IMEMSZ         500000000           words  
       MEM_UNIT             IMEMU          INTEGERWORDS[  0]    ***   
       MRCC                 IMRCCC         OFF         [  0]    ***   
       MULTIPLICTY          IMULTP              1               ***   
       NACOUPLING           IVCOUP         OFF         [  0]    ***   
       NEGEVAL              IDIE           ABORT       [  0]    ***   
       NEWNORM              INEWNO         OFF         [  0]    ***   
       NON-HF               INONHF         OFF         [  0]    ***   
       NTOP_TAMP            ITOPT2             15               ***   
       NUC_MODEL            INUCMO         POINT       [  0]    ***   
       OCCUPATION           IOCCU   ESTIMATED BY SCF 
       OPEN-SHELL           IOPEN          SPIN-ORBITAL[  0]    ***   
       OPTVIB               IOPTVB         OFF         [  0]    ***   
       ORBITALS             IORBTP         STANDARD    [  0]    ***   
       PARALLEL             IPARAL         ON          [  1]    ***   
       PARA_INT             IPINTS         ON          [  1]    ***   
       PARA_PRINT           IPPRIN              0               ***   
       PERT_ORB             IPTORB         STANDARD    [  0]    ***   
       POINTS               IGRDFD              0               ***   
       PRINT                IPRNT               0               ***   
       PROPS                IPROPS         OFF         [  0]    ***   
       PROP_INTEGR          IINTYP         INTERNAL    [  0]    ***   
       PSI                  IPSI           OFF         [  0]    ***   
       QC_ALG               IQCALG         FLM         [  0]    ***   
       QC_LINALG            IQCLIN         TRIDIAG     [  2]    ***   
       QC_MAXCYC            IQCMAX          10D-100           cycles  
       QC_MAXSCFCY          IQCMSC          10D- 15           cycles  
       QC_RTRUST            IQCRTR          10D-  0           x 10-3  
       QC_SKIPSCF           IQCSKI         OFF         [  0]    ***   
       QC_START             IQCSTA          10D-  1             ***   
       QRHFGUESS            IQGUES         OFF         [  0]    ***   
       QUARTIC              IQUART         OFF         [  0]    ***   
       RAMAN_INT            IRAMIN         OFF         [  0]    ***   
       RAMAN_ORB            IRAMRE         UNRELAXED   [  0]    ***   
       RDO                  IRDOFM         ON          [  1]    ***   
       REDUCE_REPR          REDREP         Ir          [  0]    ***   
       REFERENCE            IREFNC         RHF         [  0]    ***   
       RELATIVIST           IRELAT         OFF         [  0]    ***   
       RELAX_DENS           IRDENS         ON          [  1]    ***   
       RESET_FLAGS          IRESET         OFF         [  0]    ***   
       RESTART_CC           ICCRES         OFF         [  0]    ***   
       ROT_EVEC             ROTVEC              0               ***   
       SAVE_INTS            ISVINT         OFF         [  0]    ***   
       SCALE_ON             ISTCRT              0               ***   
       SCF_CONV             ISCFCV          10D- 10             ***   
       SCF_DAMPING          IDAMP               0             x 10-3  
       SCF_EXPORDE          IRPPOR              6               ***   
       SCF_EXPSTAR          IRPPLS              8               ***   
       SCF_EXTRAPO          IRPP           ON          [  1]    ***   
       SCF_MAXCYC           ISCFCY            150              cycles 
       SCF_NOSTOP           ISCFST         OFF         [  0]    ***   
       SCF_PRINT            ISCFPR              0               ***   
       SCF_PROG             ISCFPR         SCF         [  0]    ***   
       SD_FIELD             IFINSD              0             x 10-6  
       SOPERT               IPERSO         OFF         [  0]    ***   
       SPHERICAL            IDFGHI         ON          [  1]    ***   
       SPINORBIT            ISOCAL         OFF         [  0]    ***   
       SPINROTATIO          ISRCON         OFF         [  0]    ***   
       SPIN_FLIP            ISPFLP         OFF         [  0]    ***   
       SPIN_ORBIT           ISPORB         OFF         [  0]    ***   
       SPIN_SCAL            ISCSMP         OFF         [  0]    ***   
       STEEPSCALE           ISTPSC              1000          x 10-3  
       SUBGROUP             ISUBGP         DEFAULT     [  0]    ***   
       SUBGRPAXIS           ISBXYZ         X           [  0]    ***   
       SYMMETRY             ISYM           ON          [  0]    ***   
       SYM_CHECK            ISYMCK         OVERRIDE    [  1]    ***   
       T3_EXTRAPOL          IT3EXT         OFF         [  0]    ***   
       T4_EXTRAPOL          IT4EXP         OFF         [  0]    ***   
       TAMP_SUM             IEVERY              5               ***   
       TESTSUITE            ITESTS         OFF         [  0]    ***   
       THERMOCH             ITHERM         OFF         [  0]    ***   
       TOL_CHOLESK          ITOLCH          10D-  4             ***   
       TRANGRAD             IRESRM         OFF         [  0]    ***   
       TRANS_INV            ITRAIN         IGNORE      [  1]    ***   
       TREAT_PERT           ITREAT         SIMULTANEOUS[  0]    ***   
       TRIP_ALGORI          ITRALG         NORMAL      [  0]    ***   
       UIJ_THRESHO          IUIJTH              1               ***   
       UNITS                IUNITS         ANGSTROM    [  0]    ***   
       UNOS                 IUNOS          OFF         [  0]    ***   
       UPDATE_HESS          IHUPDT         ON          [  1]    ***   
       VIBPHASE             ISETPH         STANDARD    [  0]    ***   
       VIBRATION            IVIB           ANALYTIC    [  1]    ***   
       VIB_ALGORIT          IGEALG         STANDARD    [  0]    ***   
       VNATORB              IVNORB         OFF         [  0]    ***   
       VTRAN                IVTRAN         FULL/PARTIAL[  0]    ***   
       XFIELD               IXEFLD              0             x 10-6  
       XFORM_TOL            IXFTOL          10D- 11             ***   
       YFIELD               IYEFLD              0             x 10-6  
       ZFIELD               IZEFLD              0             x 10-6  
       ZSCALE_EXP           IZEXPS         OFF         [  0]    ***   
    -------------------------------------------------------------------
   3 entries found in Z-matrix 
   Job Title : Hypochlorous acid DBOC calculation                                              
   There are  3 unique internal coordinates.
   Of these,  0 will be optimized.
   User supplied Z-matrix: 
--------------------------------------------------------------------------------
       SYMBOL    BOND      LENGTH    ANGLE     ANGLE     DIHED     ANGLE
                  TO      (ANGST)    WRT      (DEG)      WRT      (DEG)
--------------------------------------------------------------------------------
        O    
        H          1         ROH  
        CL         1         ROCL       2        A    
                  *Initial values for internal coordinates* 
                      Name             Value
                        ROH             1.5500000000
                        ROCL            1.6830000000
                        A             107.0000000000
--------------------------------------------------------------------------------
  read isotopes from ZMAT file 
   Rotational constants (in cm-1): 
          0.4629132725             0.4897622873             8.4441632092
   Rotational constants (in MHz): 
      13877.7927251106         14682.7060528093        253149.6798881265
********************************************************************************
   The full molecular point group is C s .
   The largest Abelian subgroup of the full molecular point group is C s .
   The computational point group is C s .
********************************************************************************
--------------------------------------------------------------------------------
   Analysis of internal coordinates specified by Z-matrix 
--------------------------------------------------------------------------------
   *The nuclear repulsion energy is   48.952929401451449 a.u.
   *There are   3 degrees of freedom within the tot. symm. molecular subspace.
   *Z-matrix requests optimization of   0 coordinates.
   *The optimization is constrained.
   *The following   3 parameters can have non-zero 
    derivatives within the totally symmetric subspace:
             A    [ 3]  ROH  [ 1]  ROCL [ 2]
   *The following   0 parameters are to be optimized:

   *The following coordinates must be varied in an  unconstrained optimization.
             A    [ 3]  ROH  [ 1]  ROCL [ 2]
--------------------------------------------------------------------------------


 ----------------------------------------------------------------
         Coordinates used in calculation (QCOMP) 
 ----------------------------------------------------------------
 Z-matrix   Atomic            Coordinates (in bohr)
  Symbol    Number           X              Y              Z
 ----------------------------------------------------------------
     O         8        -2.15267635     0.21175991     0.00000000
     H         1        -3.21344880    -2.51848708     0.00000000
     CL       17         1.01905989    -0.02296406     0.00000000
 ----------------------------------------------------------------
 
   Interatomic distance matrix (Angstroms) 
 
                 O             H             CL   
                [ 1]        [ 2]        [ 3]
  O    [ 1]     0.00000
  H    [ 2]     1.55000     0.00000
  CL   [ 3]     1.68300     2.60007     0.00000
 rotcon2
   Rotational constants (in cm-1): 
          8.4441632092             0.4897622873             0.4629132725
   Rotational constants (in MHz): 
     253149.6798881268         14682.7060528093         13877.7927251106
  ECPDATA file not present.   Using default ECPDATA. 
  @GTFLGS-I, Hessian will be transformed to curvilinear coordinates.
  There are  157 basis functions.
 @CHECKOUT-I, Total execution time (CPU/WALL):        0.18/       0.25 seconds.
--executable xjoda finished with status     0 in        0.30 seconds (walltime).
 --invoking executable--
/home/asmola/.local/bin/xvmol
 SERIAL VERSION OF MOLECULE STARTED
********************************************************************************
                    INPUT FROM MOL FILE
********************************************************************************
INTGRL        1    0    1    0    0    0    0    0    0                         
         *** CFOUR Program System (Release V0.1) ***                            
Hypochlorous acid DBOC calculation                                              
    3    1 Z          0.10E-08              0    0                              
   9999.00      3.00                                                            
          8.00000000    1    4    1    1    1    1                              
O #1  -2.152676346660858   0.211759907593689   0.000000000000000                
   13    7                                                                      
   15330.0000000000       5.080000000000000E-004 -1.150000000000000E-004        
  0.000000000000000E+000  0.000000000000000E+000  0.000000000000000E+000        
  0.000000000000000E+000  0.000000000000000E+000                                
   2299.00000000000       3.929000000000000E-003 -8.950000000000000E-004        
  0.000000000000000E+000  0.000000000000000E+000  0.000000000000000E+000        
  0.000000000000000E+000  0.000000000000000E+000                                
   522.400000000000       2.024300000000000E-002 -4.636000000000000E-003        
  0.000000000000000E+000  0.000000000000000E+000  0.000000000000000E+000        
  0.000000000000000E+000  0.000000000000000E+000                                
   147.300000000000       7.918100000000000E-002 -1.872400000000000E-002        
  0.000000000000000E+000  0.000000000000000E+000  0.000000000000000E+000        
  0.000000000000000E+000  0.000000000000000E+000                                
   47.5500000000000       0.230687000000000      -5.846300000000000E-002        
  0.000000000000000E+000  0.000000000000000E+000  0.000000000000000E+000        
  0.000000000000000E+000  0.000000000000000E+000                                
   16.7600000000000       0.433118000000000      -0.136463000000000             
  0.000000000000000E+000  0.000000000000000E+000  0.000000000000000E+000        
  0.000000000000000E+000  0.000000000000000E+000                                
   6.20700000000000       0.350260000000000      -0.175740000000000             
  0.000000000000000E+000  0.000000000000000E+000  0.000000000000000E+000        
  0.000000000000000E+000  0.000000000000000E+000                                
   1.75200000000000       4.272800000000000E-002  0.160934000000000             
   1.00000000000000       0.000000000000000E+000  0.000000000000000E+000        
  0.000000000000000E+000  0.000000000000000E+000                                
  0.688200000000000      -8.154000000000000E-003  0.603418000000000             
  0.000000000000000E+000  0.000000000000000E+000  0.000000000000000E+000        
  0.000000000000000E+000  0.000000000000000E+000                                
  0.238400000000000       2.381000000000000E-003  0.378765000000000             
  0.000000000000000E+000   1.00000000000000       0.000000000000000E+000        
  0.000000000000000E+000  0.000000000000000E+000                                
   7.84500000000000       0.000000000000000E+000  0.000000000000000E+000        
  0.000000000000000E+000  0.000000000000000E+000   1.00000000000000             
  0.000000000000000E+000  0.000000000000000E+000                                
   21.0320000000000       0.000000000000000E+000  0.000000000000000E+000        
  0.000000000000000E+000  0.000000000000000E+000  0.000000000000000E+000        
   1.00000000000000       0.000000000000000E+000                                
  7.376000000000001E-002  0.000000000000000E+000  0.000000000000000E+000        
  0.000000000000000E+000  0.000000000000000E+000  0.000000000000000E+000        
  0.000000000000000E+000   1.00000000000000                                     
    8    6                                                                      
   34.4600000000000       1.592800000000000E-002  0.000000000000000E+000        
  0.000000000000000E+000  0.000000000000000E+000  0.000000000000000E+000        
  0.000000000000000E+000                                                        
   7.74900000000000       9.974000000000000E-002  0.000000000000000E+000        
  0.000000000000000E+000  0.000000000000000E+000  0.000000000000000E+000        
  0.000000000000000E+000                                                        
   2.28000000000000       0.310492000000000       0.000000000000000E+000        
  0.000000000000000E+000  0.000000000000000E+000  0.000000000000000E+000        
  0.000000000000000E+000                                                        
  0.715600000000000       0.491026000000000        1.00000000000000             
  0.000000000000000E+000  0.000000000000000E+000  0.000000000000000E+000        
  0.000000000000000E+000                                                        
  0.214000000000000       0.336337000000000       0.000000000000000E+000        
   1.00000000000000       0.000000000000000E+000  0.000000000000000E+000        
  0.000000000000000E+000                                                        
   15.1590000000000       0.000000000000000E+000  0.000000000000000E+000        
  0.000000000000000E+000   1.00000000000000       0.000000000000000E+000        
  0.000000000000000E+000                                                        
   57.4370000000000       0.000000000000000E+000  0.000000000000000E+000        
  0.000000000000000E+000  0.000000000000000E+000   1.00000000000000             
  0.000000000000000E+000                                                        
  5.974000000000000E-002  0.000000000000000E+000  0.000000000000000E+000        
  0.000000000000000E+000  0.000000000000000E+000  0.000000000000000E+000        
   1.00000000000000                                                             
    4    4                                                                      
   2.31400000000000        1.00000000000000       0.000000000000000E+000        
  0.000000000000000E+000  0.000000000000000E+000                                
  0.645000000000000       0.000000000000000E+000   1.00000000000000             
  0.000000000000000E+000  0.000000000000000E+000                                
   15.8580000000000       0.000000000000000E+000  0.000000000000000E+000        
   1.00000000000000       0.000000000000000E+000                                
  0.214000000000000       0.000000000000000E+000  0.000000000000000E+000        
  0.000000000000000E+000   1.00000000000000                                     
    2    2                                                                      
   1.42800000000000        1.00000000000000       0.000000000000000E+000        
  0.500000000000000       0.000000000000000E+000   1.00000000000000             
          1.00000000    1    3    1    1    1                                   
H #2  -3.213448804874713  -2.518487083558846   0.000000000000000                
    6    4                                                                      
   33.8700000000000       6.068000000000000E-003  0.000000000000000E+000        
  0.000000000000000E+000  0.000000000000000E+000                                
   5.09500000000000       4.530800000000000E-002  0.000000000000000E+000        
  0.000000000000000E+000  0.000000000000000E+000                                
   1.15900000000000       0.202822000000000       0.000000000000000E+000        
  0.000000000000000E+000  0.000000000000000E+000                                
  0.325800000000000       0.503903000000000        1.00000000000000             
  0.000000000000000E+000  0.000000000000000E+000                                
  0.102700000000000       0.383421000000000       0.000000000000000E+000        
   1.00000000000000       0.000000000000000E+000                                
  2.526000000000000E-002  0.000000000000000E+000  0.000000000000000E+000        
  0.000000000000000E+000   1.00000000000000                                     
    3    3                                                                      
   1.40700000000000        1.00000000000000       0.000000000000000E+000        
  0.000000000000000E+000                                                        
  0.388000000000000       0.000000000000000E+000   1.00000000000000             
  0.000000000000000E+000                                                        
  0.102000000000000       0.000000000000000E+000  0.000000000000000E+000        
   1.00000000000000                                                             
    2    2                                                                      
   1.05700000000000        1.00000000000000       0.000000000000000E+000        
  0.247000000000000       0.000000000000000E+000   1.00000000000000             
         17.00000000    1    4    1    1    1    1                              
CL#3   1.019059886954392  -0.022964062844869   0.000000000000000                
   18    8                                                                      
   456100.000000000       4.930000000000000E-005 -1.380000000000000E-005        
  4.200000000000000E-006  0.000000000000000E+000  0.000000000000000E+000        
  0.000000000000000E+000  0.000000000000000E+000  0.000000000000000E+000        
   68330.0000000000       3.830000000000000E-004 -1.073000000000000E-004        
  3.240000000000000E-005  0.000000000000000E+000  0.000000000000000E+000        
  0.000000000000000E+000  0.000000000000000E+000  0.000000000000000E+000        
   15550.0000000000       2.008500000000000E-003 -5.651000000000000E-004        
  1.711000000000000E-004  0.000000000000000E+000  0.000000000000000E+000        
  0.000000000000000E+000  0.000000000000000E+000  0.000000000000000E+000        
   4405.00000000000       8.385600000000000E-003 -2.361400000000000E-003        
  7.142000000000000E-004  0.000000000000000E+000  0.000000000000000E+000        
  0.000000000000000E+000  0.000000000000000E+000  0.000000000000000E+000        
   1439.00000000000       2.947030000000000E-002 -8.458900000000000E-003        
  2.567000000000000E-003  0.000000000000000E+000  0.000000000000000E+000        
  0.000000000000000E+000  0.000000000000000E+000  0.000000000000000E+000        
   520.400000000000       8.783249999999999E-002 -2.596380000000000E-002        
  7.885500000000000E-003  0.000000000000000E+000  0.000000000000000E+000        
  0.000000000000000E+000  0.000000000000000E+000  0.000000000000000E+000        
   203.100000000000       0.211473000000000      -6.863619999999999E-002        
  2.108670000000000E-002  0.000000000000000E+000  0.000000000000000E+000        
  0.000000000000000E+000  0.000000000000000E+000  0.000000000000000E+000        
   83.9600000000000       0.365364000000000      -0.141874000000000             
  4.422640000000000E-002  0.000000000000000E+000  0.000000000000000E+000        
  0.000000000000000E+000  0.000000000000000E+000  0.000000000000000E+000        
   36.2000000000000       0.340884000000000      -0.199319000000000             
  6.516700000000000E-002  0.000000000000000E+000  0.000000000000000E+000        
  0.000000000000000E+000  0.000000000000000E+000  0.000000000000000E+000        
   15.8300000000000       0.102133000000000      -1.956620000000000E-002        
  6.030100000000000E-003  0.000000000000000E+000  0.000000000000000E+000        
  0.000000000000000E+000  0.000000000000000E+000  0.000000000000000E+000        
   6.33400000000000       3.116800000000000E-003  0.499741000000000             
 -0.206495000000000       0.000000000000000E+000  0.000000000000000E+000        
  0.000000000000000E+000  0.000000000000000E+000  0.000000000000000E+000        
   2.69400000000000       1.057500000000000E-003  0.563736000000000             
 -0.405871000000000       0.000000000000000E+000  0.000000000000000E+000        
  0.000000000000000E+000  0.000000000000000E+000  0.000000000000000E+000        
  0.976800000000000      -3.780000000000000E-004  7.903250000000001E-002        
  7.595580000000000E-002   1.00000000000000       0.000000000000000E+000        
  0.000000000000000E+000  0.000000000000000E+000  0.000000000000000E+000        
  0.431300000000000       1.561000000000000E-004 -8.350900000000000E-003        
  0.725661000000000       0.000000000000000E+000  0.000000000000000E+000        
  0.000000000000000E+000  0.000000000000000E+000  0.000000000000000E+000        
  0.162500000000000      -5.140000000000000E-005  2.324600000000000E-003        
  0.394423000000000       0.000000000000000E+000   1.00000000000000             
  0.000000000000000E+000  0.000000000000000E+000  0.000000000000000E+000        
   15.0640000000000       0.000000000000000E+000  0.000000000000000E+000        
  0.000000000000000E+000  0.000000000000000E+000  0.000000000000000E+000        
   1.00000000000000       0.000000000000000E+000  0.000000000000000E+000        
   2.87400000000000       0.000000000000000E+000  0.000000000000000E+000        
  0.000000000000000E+000  0.000000000000000E+000  0.000000000000000E+000        
  0.000000000000000E+000   1.00000000000000       0.000000000000000E+000        
  5.910000000000000E-002  0.000000000000000E+000  0.000000000000000E+000        
  0.000000000000000E+000  0.000000000000000E+000  0.000000000000000E+000        
  0.000000000000000E+000  0.000000000000000E+000   1.00000000000000             
   12    7                                                                      
   663.300000000000       2.404500000000000E-003 -6.521000000000000E-004        
  0.000000000000000E+000  0.000000000000000E+000  0.000000000000000E+000        
  0.000000000000000E+000  0.000000000000000E+000                                
   156.800000000000       1.921480000000000E-002 -5.194500000000000E-003        
  0.000000000000000E+000  0.000000000000000E+000  0.000000000000000E+000        
  0.000000000000000E+000  0.000000000000000E+000                                
   49.9800000000000       8.850970000000000E-002 -2.469380000000000E-002        
  0.000000000000000E+000  0.000000000000000E+000  0.000000000000000E+000        
  0.000000000000000E+000  0.000000000000000E+000                                
   18.4200000000000       0.256020000000000      -7.281670000000000E-002        
  0.000000000000000E+000  0.000000000000000E+000  0.000000000000000E+000        
  0.000000000000000E+000  0.000000000000000E+000                                
   7.24000000000000       0.436927000000000      -0.134030000000000             
  0.000000000000000E+000  0.000000000000000E+000  0.000000000000000E+000        
  0.000000000000000E+000  0.000000000000000E+000                                
   2.92200000000000       0.350334000000000      -9.477420000000000E-002        
  0.000000000000000E+000  0.000000000000000E+000  0.000000000000000E+000        
  0.000000000000000E+000  0.000000000000000E+000                                
   1.02200000000000       5.854950000000000E-002  0.262289000000000             
   1.00000000000000       0.000000000000000E+000  0.000000000000000E+000        
  0.000000000000000E+000  0.000000000000000E+000                                
  0.381800000000000      -4.584200000000000E-003  0.564667000000000             
  0.000000000000000E+000  0.000000000000000E+000  0.000000000000000E+000        
  0.000000000000000E+000  0.000000000000000E+000                                
  0.130100000000000       2.269700000000000E-003  0.341250000000000             
  0.000000000000000E+000   1.00000000000000       0.000000000000000E+000        
  0.000000000000000E+000  0.000000000000000E+000                                
   9.48000000000000       0.000000000000000E+000  0.000000000000000E+000        
  0.000000000000000E+000  0.000000000000000E+000   1.00000000000000             
  0.000000000000000E+000  0.000000000000000E+000                                
   3.66800000000000       0.000000000000000E+000  0.000000000000000E+000        
  0.000000000000000E+000  0.000000000000000E+000  0.000000000000000E+000        
   1.00000000000000       0.000000000000000E+000                                
  4.190000000000000E-002  0.000000000000000E+000  0.000000000000000E+000        
  0.000000000000000E+000  0.000000000000000E+000  0.000000000000000E+000        
  0.000000000000000E+000   1.00000000000000                                     
    5    5                                                                      
   1.04600000000000        1.00000000000000       0.000000000000000E+000        
  0.000000000000000E+000  0.000000000000000E+000  0.000000000000000E+000        
  0.344000000000000       0.000000000000000E+000   1.00000000000000             
  0.000000000000000E+000  0.000000000000000E+000  0.000000000000000E+000        
   17.9570000000000       0.000000000000000E+000  0.000000000000000E+000        
   1.00000000000000       0.000000000000000E+000  0.000000000000000E+000        
   5.76000000000000       0.000000000000000E+000  0.000000000000000E+000        
  0.000000000000000E+000   1.00000000000000       0.000000000000000E+000        
  0.135000000000000       0.000000000000000E+000  0.000000000000000E+000        
  0.000000000000000E+000  0.000000000000000E+000   1.00000000000000             
    3    3                                                                      
  0.706000000000000        1.00000000000000       0.000000000000000E+000        
  0.000000000000000E+000                                                        
   11.7790000000000       0.000000000000000E+000   1.00000000000000             
  0.000000000000000E+000                                                        
  0.312000000000000       0.000000000000000E+000  0.000000000000000E+000        
   1.00000000000000                                                             
FINISH                                                                          
 
********************************************************************************
 ONE- AND TWO-ELECTRON INTEGRALS OVER SYMMETRY-ADAPTED AOS ARE CALCULATED.

  SPHERICAL HARMONICS ARE USED.
  
  INTEGRALS LESS THAN  0.10E-13 ARE NEGLECTED.

  NUCLEAR REPULSION ENERGY :   48.9529294015 A.U.
  @MOLECU-I, ONE ELECTRON INTEGRALS (CPU/WALL):        0.04/       0.04 SECONDS.
  @TWOEL-I,   14162347 INTEGRALS OF SYMMETRY TYPE  I I I I
  @TWOEL-I,   13334344 INTEGRALS OF SYMMETRY TYPE  I J I J
  @TWOEL-I,    6898666 INTEGRALS OF SYMMETRY TYPE  I I J J
  @TWOEL-I, TOTAL NUMBER OF 2-E INTEGRALS   34395357.
  @MOLECU-I, TWO ELECTRON INTEGRALS (CPU/WALL):       53.99/       8.94 SECONDS.
 @CHECKOUT-I, Total execution time (CPU/WALL):       54.05/       9.00 seconds.

Running with 14 threads/proc

--executable xvmol finished with status     0 in        9.04 seconds (walltime).
 --invoking executable--
/home/asmola/.local/bin/xvmol2ja
 @GETMEM-I,  Allocated    3814 MB of main memory.
 @CHECKOUT-I, Total execution time (CPU/WALL):        0.09/       0.03 seconds.
--executable xvmol2ja finished with status     0 in        0.06 seconds (walltime).
 --invoking executable--
/home/asmola/.local/bin/xvscf
  There are  157 functions in the AO basis.

  There are 2 irreducible representations.

       Irrep        # of functions
         1                104
         2                 53


  Parameters for SCF calculation: 
        SCF reference function:  RHF  
  Maximum number of iterations:  150
     Full symmetry point group: C s 
     Computational point group: C s 
        Initial density matrix: MOREAD                 
     SCF convergence tolerance: 10**(-10)
  DIIS convergence acceleration:  ON
          Latest start for DIIS:   8
                     DIIS order:   6

  Memory information:    1209746 words required.
  Fock matrices are constructed from AO integral file.
 @GETMEM-I,  Allocated       9 MB of main memory.
  Initialization and symmetry analysis required      0.001 seconds.

  @INITGES-I, Occupancies from core Hamiltonian:

          Alpha population by irrep:  10    3
           Beta population by irrep:  10    3


 total no. of electrons in initial guess :  0.000000000000000E+000
  --------------------------------------------------------------------
  Iteration         Total Energy            Largest Density Difference
  --------------------------------------------------------------------
       0            48.952929401451449              0.0000000000D+00
   current occupation vector 
    10  3
    10  3
       1          -366.276482984026757              0.1325754842D+02
   current occupation vector 
    10  3
    10  3
       2          -342.818386181123230              0.1322643926D+02
   current occupation vector 
    10  3
    10  3
       3          -422.241577786530854              0.1069308855D+02
   current occupation vector 
    10  3
    10  3
       4          -340.216973301285975              0.1070129752D+02
   current occupation vector 
    10  3
    10  3
       5          -422.024165368441516              0.1064906918D+02
   current occupation vector 
    10  3
    10  3
       6          -340.135529469701055              0.1064927352D+02
   current occupation vector 
    10  3
    10  3
       7          -422.016827652429981              0.1064748673D+02
   current occupation vector 
    10  3
    10  3
       8          -340.133073401135334              0.1064749274D+02
   current occupation vector 
    10  3
    10  3
       9          -445.061978108963956              0.8447327445D+01
   current occupation vector 
    10  3
    10  3
      10          -464.631037970085572              0.2149423329D+01
   current occupation vector 
    10  3
    10  3
      11          -470.186330862854334              0.6505855721D+00
   current occupation vector 
    10  3
    10  3
      12          -470.720256905047222              0.8259843237D-01
   current occupation vector 
    10  3
    10  3
      13          -485.731132254984345              0.1931528215D+01
   current occupation vector 
    10  3
    10  3
      14          -491.810340576519934              0.6628344147D+00
   current occupation vector 
    10  3
    10  3
      15          -509.457044149701460              0.7323622332D+01
   current occupation vector 
    10  3
    10  3
      16          -523.701596791172051              0.7322606314D+01
   current occupation vector 
    11  2
    11  2
      17          -528.642953120987613              0.3689519449D+01
   current occupation vector 
    11  2
    11  2
      18          -532.190363302577225              0.1519066567D+01
   current occupation vector 
    11  2
    11  2
      19          -534.554674046861237              0.2289152902D+01
   current occupation vector 
    10  3
    10  3
      20          -534.752838213439645              0.6637044604D+00
   current occupation vector 
    10  3
    10  3
      21          -534.786394642629489              0.2063303059D+00
   current occupation vector 
    10  3
    10  3
      22          -534.791502563419499              0.8974644894D-01
   current occupation vector 
    10  3
    10  3
      23          -534.792377384618248              0.4400033641D-01
   current occupation vector 
    10  3
    10  3
      24          -534.792482606044700              0.1656566584D-01
   current occupation vector 
    10  3
    10  3
      25          -534.792499407966943              0.5853437741D-02
   current occupation vector 
    10  3
    10  3
      26          -534.792501511572596              0.2088603467D-02
   current occupation vector 
    10  3
    10  3
      27          -534.792501702402319              0.4601292905D-03
   current occupation vector 
    10  3
    10  3
      28          -534.792501728673869              0.1697500518D-03
   current occupation vector 
    10  3
    10  3
      29          -534.792501731785251              0.5491055597D-04
   current occupation vector 
    10  3
    10  3
      30          -534.792501732384267              0.3347502538D-04
   current occupation vector 
    10  3
    10  3
      31          -534.792501732484652              0.1116199435D-04
   current occupation vector 
    10  3
    10  3
      32          -534.792501732509550              0.7226585477D-05
   current occupation vector 
    10  3
    10  3
      33          -534.792501732506025              0.8276287476D-06
   current occupation vector 
    10  3
    10  3
      34          -534.792501732509891              0.3849185183D-06
   current occupation vector 
    10  3
    10  3
      35          -534.792501732507162              0.1402576317D-06
   current occupation vector 
    10  3
    10  3
      36          -534.792501732512051              0.5532137637D-07
   current occupation vector 
    10  3
    10  3
      37          -534.792501732510686              0.1590705057D-07
   current occupation vector 
    10  3
    10  3
      38          -534.792501732510573              0.9204092266D-08
   current occupation vector 
    10  3
    10  3
      39          -534.792501732505343              0.3301488416D-08
   current occupation vector 
    10  3
    10  3
      40          -534.792501732498636              0.2268638694D-08
   current occupation vector 
    10  3
    10  3
      41          -534.792501732501819              0.4771899334D-09
   current occupation vector 
    10  3
    10  3
      42          -534.792501732505798              0.2482144074D-09
   current occupation vector 
    10  3
    10  3

  SCF has converged.

 Density matrix saved to file den.dat
 total electron number:   26.0000000000002     
     E(SCF)=      -534.792501732505571              0.7802685581D-10

  Eigenvector printing suppressed.

 @PUTMOS-I, Writing converged MOs to NEWMOS. 
 @PUTMOS-I, Symmetry   1 Full Blocks 26 Partial Blocksize   0
 @PUTMOS-I, Symmetry   2 Full Blocks 13 Partial Blocksize   1
 @PUTFOCK-I, Writing converged Fock matrix to NEWFOCK. 
 @PUTFOCK-I, Symmetry   1 Full Blocks 26 Partial Blocksize   0
 @PUTFOCK-I, Symmetry   2 Full Blocks 13 Partial Blocksize   1


 
  ORBITAL EIGENVALUES (ALPHA)  (1H = 27.2113834 eV)

       MO #        E(hartree)               E(eV)           FULLSYM    COMPSYM
       ----   --------------------   --------------------   -------   ---------
    1     1        -104.8828136077       -2854.0064531503     A'        A'  (1)
    2     2         -20.6662894471        -562.3583256005     A'        A'  (1)
    3     3         -10.6026770914        -288.5135114015     A'        A'  (1)
    4     4          -8.0693484527        -219.5781345348     A'        A'  (1)
    5     5          -8.0671635946        -219.5186815222     A'        A'  (1)
    6   105          -8.0669783995        -219.5136421092     A''       A'' (2)
    7     6          -1.3542135218         -36.8500233477     A'        A'  (1)
    8     7          -1.0286137827         -27.9900040116     A'        A'  (1)
    9     8          -0.6055297679         -16.4773026733     A'        A'  (1)
   10   106          -0.6025055688         -16.3950100328     A''       A'' (2)
   11     9          -0.5837300511         -15.8841022237     A'        A'  (1)
   12    10          -0.4346937334         -11.8286178407     A'        A'  (1)
   13   107          -0.4337427182         -11.8027394029     A''       A'' (2)
  +++++++++++++++++++++++++++++++++++++++++++++++++++++++++++++++++++++++++++++
   14    11          -0.0121357015          -0.3302292276     A'        A'  (1)
   15    12           0.0564141084           1.5351059333     A'        A'  (1)
   16    13           0.0882544740           2.4015263287     A'        A'  (1)
   17   108           0.1177401827           3.2038732530     A''       A'' (2)
   18    14           0.1187047048           3.2301192331     A'        A'  (1)
   19    15           0.1512377038           4.1153871414     A'        A'  (1)
   20    16           0.1646552848           4.4804980837     A'        A'  (1)
   21    17           0.1762264638           4.7953658711     A'        A'  (1)
   22   109           0.1923853865           5.2350725118     A''       A'' (2)
   23    18           0.2214187389           6.0251101960     A'        A'  (1)
   24   110           0.2481054840           6.7512934480     A''       A'' (2)
   25    19           0.2835151532           7.7148395343     A'        A'  (1)
   26    20           0.3185601173           8.6684614872     A'        A'  (1)
   27    21           0.3355181125           9.1299119975     A'        A'  (1)
   28   111           0.3752459926          10.2109625738     A''       A'' (2)
   29    22           0.3885451716          10.5728516313     A'        A'  (1)
   30   112           0.4254171674          11.5761896465     A''       A'' (2)
   31    23           0.4592064291          12.4956422012     A'        A'  (1)
   32    24           0.5089219904          13.8484714028     A'        A'  (1)
   33    25           0.5903091475          16.0631285364     A'        A'  (1)
   34   113           0.6178984591          16.8138718738     A''       A'' (2)
   35    26           0.6546728458          17.8145538099     A'        A'  (1)
   36    27           0.6754726782          18.3805460234     A'        A'  (1)
   37   114           0.7482250891          20.3602397686     A''       A'' (2)
   38    28           0.7543239454          20.5261980853     A'        A'  (1)
   39    29           0.7654693594          20.8294802195     A'        A'  (1)
   40   115           0.7747038509          21.0807635077     A''       A'' (2)
   41    30           0.8105671645          22.0566538849     A'        A'  (1)
   42    31           0.8349397268          22.7198650211     A'        A'  (1)
   43   116           0.8382006348          22.8085988385     A''       A'' (2)
   44   117           0.8929823274          24.2992844803     A''       A'' (2)
   45    32           0.9009028270          24.5148122320     A'        A'  (1)
   46   118           0.9451835379          25.7197516342     A''       A'' (2)
   47    33           0.9489595366          25.8225017813     A'        A'  (1)
   48   119           0.9512410795          25.8845857193     A''       A'' (2)
   49    34           0.9727432716          26.4696901122     A'        A'  (1)
   50    35           1.0145538872          27.6074148036     A'        A'  (1)
   51    36           1.0321872089          28.0872418830     A'        A'  (1)
   52    37           1.0853792071          29.5346697382     A'        A'  (1)
   53   120           1.1085045180          30.1639414412     A''       A'' (2)
   54    38           1.1167806106          30.3891453694     A'        A'  (1)
   55   121           1.1715921655          31.8806436037     A''       A'' (2)
   56    39           1.2194331543          33.1824630930     A'        A'  (1)
   57    40           1.2445250141          33.8652473083     A'        A'  (1)
   58   122           1.3196610435          35.9098026117     A''       A'' (2)
   59   123           1.3835867790          37.6493103117     A''       A'' (2)
   60    41           1.4013918581          38.1338111450     A'        A'  (1)
   61    42           1.5049390173          40.9514725923     A'        A'  (1)
   62   124           1.5244904167          41.4834932196     A''       A'' (2)
   63    43           1.5424425294          41.9719950388     A'        A'  (1)
   64    44           1.6232636504          44.1712495493     A'        A'  (1)
   65    45           1.7315268893          47.1172420521     A'        A'  (1)
   66    46           1.8285517952          49.7574239655     A'        A'  (1)
   67   125           2.1594439301          58.7614567136     A''       A'' (2)
   68    47           2.2094126199          60.1211738877     A'        A'  (1)
   69   126           2.2191253866          60.3854717078     A''       A'' (2)
   70    48           2.2704483685          61.7820410448     A'        A'  (1)
   71   127           2.3081503403          62.8079638549     A''       A'' (2)
   72    49           2.3088041535          62.8257550173     A'        A'  (1)
   73    50           2.3240496369          63.2406057104     A'        A'  (1)
   74    51           2.3690948898          64.4663493577     A'        A'  (1)
   75   128           2.4229936585          65.9330094166     A''       A'' (2)
   76    52           2.4262301287          66.0210782484     A'        A'  (1)
   77   129           2.4484756811          66.6264105035     A''       A'' (2)
   78   130           2.4802331235          67.4905744446     A''       A'' (2)
   79    53           2.5016185373          68.0725011382     A'        A'  (1)
   80   131           2.5384403245          69.0744729079     A''       A'' (2)
   81    54           2.5716155606          69.9772169782     A'        A'  (1)
   82    55           2.6760393936          72.8187339330     A'        A'  (1)
   83    56           2.8878584836          78.5826244021     A'        A'  (1)
   84   132           2.9023645554          78.9773546829     A''       A'' (2)
   85    57           2.9738740265          80.9232263197     A'        A'  (1)
   86    58           3.0567760159          83.1791041359     A'        A'  (1)
   87   133           3.0643664341          83.3856499168     A''       A'' (2)
   88   134           3.1085544066          84.5880657769     A''       A'' (2)
   89    59           3.1312652370          85.2060588922     A'        A'  (1)
   90    60           3.1992786065          87.0567967661     A'        A'  (1)
   91    61           3.2117322339          87.3956771943     A'        A'  (1)
   92   135           3.3636560153          91.5297334578     A''       A'' (2)
   93    62           3.3733982028          91.7948318571     A'        A'  (1)
   94    63           3.4128867205          92.8693690522     A'        A'  (1)
   95    64           3.8064998335         103.5801263824     A'        A'  (1)
   96   136           3.8321480543         104.2780499502     A''       A'' (2)
   97    65           3.8866806594         105.7619575768     A'        A'  (1)
   98   137           4.0249316996         109.5239596365     A''       A'' (2)
   99    66           4.0494474289         110.1910665449     A'        A'  (1)
  100   138           4.1375661405         112.5888985909     A''       A'' (2)
  101   139           4.2159222245         114.7210760362     A''       A'' (2)
  102    67           4.2262789870         115.0028978699     A'        A'  (1)
  103    68           4.2578595169         115.8622477786     A'        A'  (1)
  104    69           4.5940499757         125.0104552465     A'        A'  (1)
  105    70           5.0947106498         138.6341248025     A'        A'  (1)
  106    71           5.1647249077         140.5393096183     A'        A'  (1)
  107    72           5.8806639173         160.0210005011     A'        A'  (1)
  108   140           6.5839950259         179.1596129529     A''       A'' (2)
  109    73           6.6334965995         180.5066192506     A'        A'  (1)
  110   141           6.6834939781         181.8671170905     A''       A'' (2)
  111    74           6.6957782603         182.2013894021     A'        A'  (1)
  112   142           6.7749405119         184.3555037819     A''       A'' (2)
  113    75           6.8904554340         187.4988246140     A'        A'  (1)
  114    76           6.9586575779         189.3546993021     A'        A'  (1)
  115   143           7.0750408596         192.5216494019     A''       A'' (2)
  116    77           7.1362499567         194.1872336105     A'        A'  (1)
  117   144           7.1712061569         195.1384401759     A''       A'' (2)
  118    78           7.5696754343         205.9813404574     A'        A'  (1)
  119    79           7.7136201608         209.8982755970     A'        A'  (1)
  120   145          10.3556659602         281.7919968062     A''       A'' (2)
  121    80          10.3595361175         281.8973091407     A'        A'  (1)
  122   146          10.3940619678         282.8368052888     A''       A'' (2)
  123    81          10.4383368075         284.0415849262     A'        A'  (1)
  124    82          10.6008607659         288.4640866721     A'        A'  (1)
  125   147          12.6852559415         345.1833629506     A''       A'' (2)
  126    83          12.7304279470         346.4125557132     A'        A'  (1)
  127    84          13.1994030443         359.1740168907     A'        A'  (1)
  128    85          18.2595778069         496.8683724254     A'        A'  (1)
  129   148          26.0524370280         708.9228524724     A''       A'' (2)
  130    86          26.2354598733         713.9031572864     A'        A'  (1)
  131    87          26.5729831657         723.0876330023     A'        A'  (1)
  132    88          28.7477402748         782.2657825010     A'        A'  (1)
  133   149          36.9025124526        1004.1684147716     A''       A'' (2)
  134    89          36.9037427003        1004.2018915141     A'        A'  (1)
  135   150          36.9038644687        1004.2052050006     A''       A'' (2)
  136    90          36.9059014109        1004.2606330138     A'        A'  (1)
  137   151          36.9118438947        1004.4223362196     A''       A'' (2)
  138    91          36.9119457664        1004.4251082887     A'        A'  (1)
  139    92          36.9163326067        1004.5444802841     A'        A'  (1)
  140   152          43.8671086133        1193.6847111259     A''       A'' (2)
  141    93          43.8791000635        1194.0110150754     A'        A'  (1)
  142   153          43.8989445827        1194.5510118941     A''       A'' (2)
  143    94          43.9953385085        1197.1740239677     A'        A'  (1)
  144    95          44.0612415872        1198.9673379097     A'        A'  (1)
  145   154          46.4896616251        1265.0480066160     A''       A'' (2)
  146    96          46.4918210285        1265.1067669706     A'        A'  (1)
  147   155          46.5145010272        1265.7239211114     A''       A'' (2)
  148    97          46.5377792899        1266.3573548434     A'        A'  (1)
  149    98          46.6202517064        1268.6015433860     A'        A'  (1)
  150   156          55.0246066339        1497.2956675479     A''       A'' (2)
  151    99          55.0745001283        1498.6533385550     A'        A'  (1)
  152   100          55.6243485336        1513.6154743239     A'        A'  (1)
  153   101         103.8132880564        2824.9031833179     A'        A'  (1)
  154   157         138.2137600410        3760.9876156320     A''       A'' (2)
  155   102         138.3370634400        3764.3428716948     A'        A'  (1)
  156   103         138.5831392467        3771.0389348173     A'        A'  (1)
  157   104         149.4613830867        4067.0509986661     A'        A'  (1)


  VSCF finished.

 @CHECKOUT-I, Total execution time (CPU/WALL):       70.33/      13.69 seconds.
--executable xvscf finished with status     0 in       13.72 seconds (walltime).
 --invoking executable--
/home/asmola/.local/bin/xvtran
 @GETMEM-I,  Allocated    3814 MB of main memory.
  Full RHF integral transformation
  Transformation of IIII integrals :
  1 pass through the AO integral file was required.
    14162347 AO integrals were read.
    15933126 MO integrals were written to HF2.
  Transformation of IIJJ integrals :
  1 pass through the AO integral file was required.
     6898666 AO integrals were read.
     7813260 MO integrals were written to HF2.
  Transformation of IJIJ integrals :
  1 pass through the AO integral file was required.
    13334344 AO integrals were read.
    15193828 MO integrals were written to HF2.
  Summary of active molecular orbitals: 
------------------------------------------------------------------------
 
  Index      Eigenvalue    Symmetry    Index      Eigenvalue    Symmetry
------------------------------------------------------------------------
     1      -104.8828136        1        80         7.1362500        1
     2       -20.6662894        1        81         7.5696754        1
     3       -10.6026771        1        82         7.7136202        1
     4        -8.0693485        1        83        10.3595361        1
     5        -8.0671636        1        84        10.4383368        1
     6        -1.3542135        1        85        10.6008608        1
     7        -1.0286138        1        86        12.7304279        1
     8        -0.6055298        1        87        13.1994030        1
     9        -0.5837301        1        88        18.2595778        1
    10        -0.4346937        1        89        26.2354599        1
    11        -8.0669784        2        90        26.5729832        1
    12        -0.6025056        2        91        28.7477403        1
    13        -0.4337427        2        92        36.9037427        1
    14        -0.0121357        1        93        36.9059014        1
    15         0.0564141        1        94        36.9119458        1
    16         0.0882545        1        95        36.9163326        1
    17         0.1187047        1        96        43.8791001        1
    18         0.1512377        1        97        43.9953385        1
    19         0.1646553        1        98        44.0612416        1
    20         0.1762265        1        99        46.4918210        1
    21         0.2214187        1       100        46.5377793        1
    22         0.2835152        1       101        46.6202517        1
    23         0.3185601        1       102        55.0745001        1
    24         0.3355181        1       103        55.6243485        1
    25         0.3885452        1       104       103.8132881        1
    26         0.4592064        1       105       138.3370634        1
    27         0.5089220        1       106       138.5831392        1
    28         0.5903091        1       107       149.4613831        1
    29         0.6546728        1       108         0.1177402        2
    30         0.6754727        1       109         0.1923854        2
    31         0.7543239        1       110         0.2481055        2
    32         0.7654694        1       111         0.3752460        2
    33         0.8105672        1       112         0.4254172        2
    34         0.8349397        1       113         0.6178985        2
    35         0.9009028        1       114         0.7482251        2
    36         0.9489595        1       115         0.7747039        2
    37         0.9727433        1       116         0.8382006        2
    38         1.0145539        1       117         0.8929823        2
    39         1.0321872        1       118         0.9451835        2
    40         1.0853792        1       119         0.9512411        2
    41         1.1167806        1       120         1.1085045        2
    42         1.2194332        1       121         1.1715922        2
    43         1.2445250        1       122         1.3196610        2
    44         1.4013919        1       123         1.3835868        2
    45         1.5049390        1       124         1.5244904        2
    46         1.5424425        1       125         2.1594439        2
    47         1.6232637        1       126         2.2191254        2
    48         1.7315269        1       127         2.3081503        2
    49         1.8285518        1       128         2.4229937        2
    50         2.2094126        1       129         2.4484757        2
    51         2.2704484        1       130         2.4802331        2
    52         2.3088042        1       131         2.5384403        2
    53         2.3240496        1       132         2.9023646        2
    54         2.3690949        1       133         3.0643664        2
    55         2.4262301        1       134         3.1085544        2
    56         2.5016185        1       135         3.3636560        2
    57         2.5716156        1       136         3.8321481        2
    58         2.6760394        1       137         4.0249317        2
    59         2.8878585        1       138         4.1375661        2
    60         2.9738740        1       139         4.2159222        2
    61         3.0567760        1       140         6.5839950        2
    62         3.1312652        1       141         6.6834940        2
    63         3.1992786        1       142         6.7749405        2
    64         3.2117322        1       143         7.0750409        2
    65         3.3733982        1       144         7.1712062        2
    66         3.4128867        1       145        10.3556660        2
    67         3.8064998        1       146        10.3940620        2
    68         3.8866807        1       147        12.6852559        2
    69         4.0494474        1       148        26.0524370        2
    70         4.2262790        1       149        36.9025125        2
    71         4.2578595        1       150        36.9038645        2
    72         4.5940500        1       151        36.9118439        2
    73         5.0947106        1       152        43.8671086        2
    74         5.1647249        1       153        43.8989446        2
    75         5.8806639        1       154        46.4896616        2
    76         6.6334966        1       155        46.5145010        2
    77         6.6957783        1       156        55.0246066        2
    78         6.8904554        1       157       138.2137600        2
    79         6.9586576        1
------------------------------------------------------------------------
  -104.882813607714       -20.6662894471025       -10.6026770914367     
  -8.06934845270602       -8.06716359456488       -1.35421352181952     
  -1.02861378270133      -0.605529767857430      -0.583730051141303     
 -0.434693733383089       -8.06697839953263      -0.602505568781691     
 -0.433742718237592      -1.213570154573244E-002  5.641410841519985E-002
  8.825447399563348E-002  0.118704704779703       0.151237703755180     
  0.164655284807245       0.176226463777975       0.221418738895332     
  0.283515153232055       0.318560117277593       0.335518112524168     
  0.388545171550725       0.459206429070377       0.508921990447576     
  0.590309147472712       0.654672845846646       0.675472678223591     
  0.754323945371353       0.765469359398434       0.810567164507514     
  0.834939726772984       0.900902827011532       0.948959536591112     
  0.972743271561306        1.01455388716375        1.03218720893828     
   1.08537920707728        1.11678061062324        1.21943315432449     
   1.24452501405326        1.40139185812253        1.50493901726138     
   1.54244252935522        1.62326365036216        1.73152688929637     
   1.82855179518509        2.20941261985607        2.27044836848831     
   2.30880415353284        2.32404963690172        2.36909488981394     
   2.42623012868875        2.50161853726959        2.57161556064645     
   2.67603939360941        2.88785848359790        2.97387402654645     
   3.05677601587572        3.13126523703996        3.19927860654600     
   3.21173223388083        3.37339820279535        3.41288672049816     
   3.80649983353748        3.88668065941681        4.04944742886025     
   4.22627898697426        4.25785951693310        4.59404997566165     
   5.09471064975178        5.16472490767430        5.88066391733443     
   6.63349659946336        6.69577826028688        6.89045543395564     
   6.95865757792180        7.13624995672014        7.56967543433918     
   7.71362016078010        10.3595361175445        10.4383368074631     
   10.6008607659445        12.7304279470470        13.1994030443432     
   18.2595778068910        26.2354598732520        26.5729831656514     
   28.7477402747934        36.9037427003481        36.9059014108715     
   36.9119457663709        36.9163326067478        43.8791000635197     
   43.9953385085027        44.0612415872121        46.4918210284979     
   46.5377792899492        46.6202517063514        55.0745001283167     
   55.6243485336316        103.813288056422        138.337063439957     
   138.583139246690        149.461383086685       0.117740182699568     
  0.192385386469299       0.248105483973221       0.375245992594918     
  0.425417167380842       0.617898459135963       0.748225089084571     
  0.774703850878911       0.838200634757711       0.892982327398241     
  0.945183537938018       0.951241079471051        1.10850451804623     
   1.17159216549550        1.31966104346326        1.38358677904416     
   1.52449041674254        2.15944393013004        2.21912538661411     
   2.30815034030507        2.42299365847635        2.44847568108031     
   2.48023312348876        2.53844032449536        2.90236455537433     
   3.06436643411401        3.10855440656820        3.36365601528972     
   3.83214805426655        4.02493169959342        4.13756614045905     
   4.21592222452598        6.58399502588013        6.68349397813167     
   6.77494051191360        7.07504085962458        7.17120615690095     
   10.3556659602311        10.3940619677864        12.6852559414759     
   26.0524370279689        36.9025124526235        36.9038644687430     
   36.9118438946984        43.8671086132968        43.8989445826613     
   46.4896616250667        46.5145010272205        55.0246066338519     
   138.213760041029     
 @CHECKOUT-I, Total execution time (CPU/WALL):       34.52/      19.68 seconds.
--executable xvtran finished with status     0 in       19.74 seconds (walltime).
 --invoking executable--
/home/asmola/.local/bin/xintprc
 @GETMEM-I,  Allocated    3814 MB of main memory.
  Processing integrals for CCSD calculation.
  @GMOIAA-I, Processing MO integrals for spin case AA.
  @GMOIAA-I, Generation of integral list completed.
                      TYPE                NUMBER
                      ----               --------
                      PPPP              27524020
                      PPPH               9932000
                      PPHH                900748
                      PHPH                491140
                      PHHH                 89950
                      HHHH                  2356

                     TOTAL              38940214

  @FORMT2-I, Second-order MP correlation energies:
            ------------------------------------------------
            E(SCF)                  =   -534.792501732506 a.u.
            E2(AA)                  =     -0.110717841598 a.u.
            E2(AB)                  =     -0.653734618370 a.u.
            E2(TOT)                 =     -0.875170301566 a.u.
            Total MP2 energy        =   -535.667672034072 a.u.
            ------------------------------------------------
   Largest T2 amplitudes for spin case AB:
       _       _                 _       _                 _       _
   i   j   a   b             i   j   a   b             i   j   a   b
-----------------------------------------------------------------------------
[ 10  10  14  14]-0.03507 [  9   9  14  14]-0.02834 [  8   8  14  14]-0.02750
[ 10   8  14  14] 0.02644 [  8  10  14  14] 0.02644 [  8   8  19  19]-0.02609
[ 10   9  14  14]-0.02252 [  9  10  14  14]-0.02252 [  9   9  19  19]-0.02003
[  8   8  19  16] 0.01897 [  8   8  16  19] 0.01897 [  8   8  16  16]-0.01888
[  9   8  14  14] 0.01869 [  8   9  14  14] 0.01869 [  9   8  14  16] 0.01850
-----------------------------------------------------------------------------
   Norm of T2AB vector (  1799624 symmetry allowed elements):  0.3632833954.
-----------------------------------------------------------------------------
 @CHECKOUT-I, Total execution time (CPU/WALL):        6.31/       7.77 seconds.
--executable xintprc finished with status     0 in        7.90 seconds (walltime).
  calling xvcc 
 --invoking executable--
/home/asmola/.local/bin/xvcc
 @GETMEM-I,  Allocated    3814 MB of main memory.
   CCSD energy will be calculated.
   The total correlation energy is -0.875170301566 a.u.
   The total correlation energy is -0.864159139017 a.u.
  Convergence information after     1 iterations: 
  Largest element of residual vector : -0.16391831E-01.
  Largest element of DIIS residual   : -0.16391831E-01.
   The total correlation energy is -0.886082286487 a.u.
  Convergence information after     2 iterations: 
  Largest element of residual vector : -0.10045062E-01.
  Largest element of DIIS residual   : -0.90087779E-02.
   The total correlation energy is -0.884853770754 a.u.
  Convergence information after     3 iterations: 
  Largest element of residual vector :  0.60480548E-02.
  Largest element of DIIS residual   :  0.59502437E-02.
   The total correlation energy is -0.887750808690 a.u.
  Convergence information after     4 iterations: 
  Largest element of residual vector : -0.20251774E-02.
  Largest element of DIIS residual   : -0.12520060E-02.
   The total correlation energy is -0.888283100421 a.u.
  Convergence information after     5 iterations: 
  Largest element of residual vector :  0.20140076E-02.
  Largest element of DIIS residual   :  0.11185291E-02.
   The total correlation energy is -0.888327989040 a.u.
  Convergence information after     6 iterations: 
  Largest element of residual vector :  0.60816309E-03.
  Largest element of DIIS residual   :  0.28464700E-03.
   The total correlation energy is -0.888339304389 a.u.
  Convergence information after     7 iterations: 
  Largest element of residual vector :  0.43040982E-03.
  Largest element of DIIS residual   :  0.22132932E-03.
   The total correlation energy is -0.888346497236 a.u.
  Convergence information after     8 iterations: 
  Largest element of residual vector :  0.13628488E-03.
  Largest element of DIIS residual   :  0.58453460E-04.
   The total correlation energy is -0.888341547176 a.u.
  Convergence information after     9 iterations: 
  Largest element of residual vector :  0.64191781E-04.
  Largest element of DIIS residual   : -0.36415791E-04.
   The total correlation energy is -0.888346966026 a.u.
  Convergence information after    10 iterations: 
  Largest element of residual vector :  0.24898739E-04.
  Largest element of DIIS residual   :  0.14551864E-04.
   The total correlation energy is -0.888347332783 a.u.
  Convergence information after    11 iterations: 
  Largest element of residual vector :  0.11966446E-04.
  Largest element of DIIS residual   :  0.82793244E-05.
   The total correlation energy is -0.888348623296 a.u.
  Convergence information after    12 iterations: 
  Largest element of residual vector :  0.60128549E-05.
  Largest element of DIIS residual   :  0.50457297E-05.
   The total correlation energy is -0.888349153023 a.u.
  Convergence information after    13 iterations: 
  Largest element of residual vector :  0.25376632E-05.
  Largest element of DIIS residual   :  0.21107733E-05.
   The total correlation energy is -0.888349342719 a.u.
  Convergence information after    14 iterations: 
  Largest element of residual vector :  0.20317828E-05.
  Largest element of DIIS residual   :  0.15617251E-05.
   The total correlation energy is -0.888349413230 a.u.
  Convergence information after    15 iterations: 
  Largest element of residual vector :  0.81457114E-06.
  Largest element of DIIS residual   :  0.62449975E-06.
   The total correlation energy is -0.888349427279 a.u.
  Convergence information after    16 iterations: 
  Largest element of residual vector :  0.60810017E-06.
  Largest element of DIIS residual   :  0.25762922E-06.
   The total correlation energy is -0.888349440623 a.u.
  Convergence information after    17 iterations: 
  Largest element of residual vector :  0.26779630E-06.
  Largest element of DIIS residual   :  0.13224700E-06.
   The total correlation energy is -0.888349435208 a.u.
  Convergence information after    18 iterations: 
  Largest element of residual vector :  0.12022121E-06.
  Largest element of DIIS residual   :  0.72193706E-07.
   The total correlation energy is -0.888349439178 a.u.
  Convergence information after    19 iterations: 
  Largest element of residual vector :  0.67291225E-07.
  Largest element of DIIS residual   : -0.50641707E-07.
   The total correlation energy is -0.888349441467 a.u.
  Convergence information after    20 iterations: 
  Largest element of residual vector :  0.29034306E-07.
  Largest element of DIIS residual   :  0.24309114E-07.
   The total correlation energy is -0.888349443561 a.u.
  Convergence information after    21 iterations: 
  Largest element of residual vector :  0.19266963E-07.
  Largest element of DIIS residual   :  0.13362675E-07.
   The total correlation energy is -0.888349444649 a.u.
  Convergence information after    22 iterations: 
  Largest element of residual vector :  0.99523782E-08.
  Largest element of DIIS residual   :  0.83339364E-08.
   The total correlation energy is -0.888349444776 a.u.
  Convergence information after    23 iterations: 
  Largest element of residual vector :  0.60401587E-08.
  Largest element of DIIS residual   :  0.42091737E-08.
   The total correlation energy is -0.888349444925 a.u.
  Convergence information after    24 iterations: 
  Largest element of residual vector :  0.28283893E-08.
  Largest element of DIIS residual   :  0.21040683E-08.
   The total correlation energy is -0.888349444824 a.u.
  Convergence information after    25 iterations: 
  Largest element of residual vector :  0.17047062E-08.
  Largest element of DIIS residual   :  0.98543516E-09.
   The total correlation energy is -0.888349444835 a.u.
  Convergence information after    26 iterations: 
[...]
 final tnorm  0.799197149533416     
  norm contr. I: |<0|L dT/dx|0>|^2   0.000000000000000E+000
  norm contr. II: <0|[nabla(1+L)e-T][nabla e^T]|0>  0.454421818232214     
  total norm contribution  0.454421818232214     
 oo  2.055687595908863E-003
 vv  -1.44333542707463     
 vo -2.942652382886978E-002
  Correlated perturbed 1-el contribution to DBOC  -1.47070626330759       cm**-1
  SUM_I |dc_I/dx|^2 contribution to DBOC  0.740221458293763       cm**-1
 
 
  The total diagonal Born-Oppenheimer correction (DBOC) is:      0.0084183594 a.u.
  The total diagonal Born-Oppenheimer correction (DBOC) is:       1847.616334 cm-1
 
 Total CC energy including DBOC  -535.672432817980     
 First-order density matrix is being calculated  (Symmetry block 2, perturbation   3)
 Calculation of the contributions of <pq||rs> to dI(i,j)/dx required   6.5 seconds.
 Calculation of the contributions of <pq||rs> to dI(a,b)/dx required  10.8 seconds.
 Calculation of the contributions of <pq||rs> to dI(i,a)/dx required   6.2 seconds.
 First-order Z-vector equations are solved for 1 perturbation.
 Convergence reached after  23 iterations.
        U*G(pq,rs) contribution is being calculated
             (Symmetry block 2, perturbation   3)

 CCSD contribution to force constants 

        0.0000000000        0.0000000000        0.0000000000
        0.0000000000        0.0000000000        0.0000000000
        0.0000000000        0.0000000000        0.0000000000
        0.0000000000        0.0000000000        0.0000000000
        0.0000000000        0.0000000000        0.0000000000
        0.0000000000        0.0000000000        0.0000000000
        0.0000000000        0.0000000000        0.0000000000
        0.0000000000        0.0000000000        0.0000000000
        0.0000000000        0.0000000000        0.0000000000
        0.0000000000        0.0000000000        0.0000000000
        0.0000000000        0.0000000000        0.0000000000
        0.0000000000        0.0000000000        0.0000000000
        0.0000000000        0.0000000000        0.0000000000
        0.0000000000        0.0000000000        0.0000000000
        0.0000000000        0.0000000000        0.0000000000
        0.0000000000        0.0000000000        0.0000000000
        0.0000000000        0.0000000000        0.0000000000
        0.0000000000        0.0000000000        0.0000000000
        0.0000000000        0.0000000000        0.0000000000
        0.0000000000        0.0000000000        0.0000000000
        0.0000000000        0.0000000000        0.0000000000
        0.0000000000        0.0000000000        0.0000000000
        0.0000000000        0.0000000000        0.0000000000
        0.0000000000        0.0000000000        0.0000000000
        0.0000000000        0.0000000000        0.0000000000
        0.0000000000        0.0000000000        0.0000000000
        0.0722602097        0.0009295628       -0.0731897725

 CCSD contribution to dipole derivatives 

        0.0000000000        0.0000000000        0.0000000000
        0.0000000000        0.0000000000        0.0000000000
        0.0000000000        0.0000000000        0.0000000000
        0.0000000000        0.0000000000        0.0000000000
        0.0000000000        0.0000000000        0.0000000000
        0.0000000000        0.0000000000        0.0000000000
        0.0000000000        0.0000000000        0.0000000000
        0.0000000000        0.0000000000        0.0000000000
        0.0000000000        0.0000000000        0.0198455045
 @CHECKOUT-I, Total execution time (CPU/WALL):     1038.35/     285.72 seconds.
--executable xsdcc finished with status     0 in      285.90 seconds (walltime).
 --invoking executable--
/home/asmola/.local/bin/xanti
 @GETMEM-I,  Allocated    3814 MB of main memory.
 CCSD MO derivative gammas will be sorted to Mulliken order.
 @CHECKOUT-I, Total execution time (CPU/WALL):        6.49/       5.04 seconds.
--executable xanti finished with status     0 in        5.17 seconds (walltime).
 --invoking executable--
/home/asmola/.local/bin/xbcktrn
 @GETMEM-I,  Allocated    3814 MB of main memory.
 CCSD MO derivative gammas will be transformed to the AO basis.
 @CHECKOUT-I, Total execution time (CPU/WALL):       12.08/       2.65 seconds.
--executable xbcktrn finished with status     0 in        2.71 seconds (walltime).
 --invoking executable--
/home/asmola/.local/bin/xvdint
 @GETMEM-I,  Allocated    3814 MB of main memory.
 One- and two-electron integral derivatives are calculated
 for RHF-CC/MBPT hessians and dipole derivatives.
 Spherical gaussians are used.
  magnet F F
 Evaluation of 2el integral derivatives

                      Two-electron integral gradient
                      ------------------------------

                         O #1 x     0.0000000000
                         O #1 y     0.0000000000
                         H #2 x     0.0000000000
                         H #2 y     0.0000000000
                         CL#3 x     0.0000000000
                         CL#3 y     0.0000000000


 O #1       0.0000000000            0.0000000000           -0.0854393389
 H #2       0.0000000000            0.0000000000            0.0014571513
 CL#3       0.0000000000            0.0000000000            0.0839821876


 Evaluation of 2e integral derivatives required  116.11 seconds.
  contribution to Hessian
        0.0000000000        0.0000000000        0.0000000000
        0.0000000000        0.0000000000        0.0000000000
       -0.0854393389        0.0014571513        0.0839821876
 @CHECKOUT-I, Total execution time (CPU/WALL):      116.22/      20.73 seconds.
--executable xvdint finished with status     0 in       20.84 seconds (walltime).
 --invoking executable--
/home/asmola/.local/bin/xanti
 @GETMEM-I,  Allocated    3814 MB of main memory.
 CCSD MO gammas will be sorted to Mulliken order.
 @CHECKOUT-I, Total execution time (CPU/WALL):        9.67/      16.51 seconds.
--executable xanti finished with status     0 in       16.60 seconds (walltime).
 --invoking executable--
/home/asmola/.local/bin/xbcktrn
 @GETMEM-I,  Allocated    3814 MB of main memory.
 CCSD MO gammas will be transformed to the AO basis.
 @CHECKOUT-I, Total execution time (CPU/WALL):       18.12/       3.77 seconds.
--executable xbcktrn finished with status     0 in        3.85 seconds (walltime).
 --invoking executable--
/home/asmola/.local/bin/xvdint
 @GETMEM-I,  Allocated    3814 MB of main memory.
 One- and two-electron integral derivatives are calculated
 for RHF-CC/MBPT hessians and dipole derivatives.
 Spherical gaussians are used.
  magnet F F

                     Kinetic energy integral gradient
                     --------------------------------

                         O #1 x     0.2790884103
                         O #1 y    -0.1407712260
                         H #2 x     0.0640871535
                         H #2 y     0.1333399867
                         CL#3 x    -0.3431755638
                         CL#3 y     0.0074312393


 O #1       0.2790884103           -0.1407712260            0.0000000000
 H #2       0.0640871535            0.1333399867            0.0000000000
 CL#3      -0.3431755638            0.0074312393            0.0000000000



                   Nuclear attraction integral gradient
                   ------------------------------------

                         O #1 x   -25.1336022963
                         O #1 y     4.5582683259
                         H #2 x    -2.2887177923
                         H #2 y    -3.5215407725
                         CL#3 x    27.4223200886
                         CL#3 y    -1.0367275534


 O #1     -25.1336022963            4.5582683259            0.0000000000
 H #2      -2.2887177923           -3.5215407725            0.0000000000
 CL#3      27.4223200886           -1.0367275534            0.0000000000



                      Reorthonormalization gradient
                      -----------------------------

                         O #1 x     0.0000000000
                         O #1 y     0.0000000000
                         H #2 x     0.0000000000
                         H #2 y     0.0000000000
                         CL#3 x     0.0000000000
                         CL#3 y     0.0000000000


 O #1       0.0000000000            0.0000000000            0.0000000000
 H #2       0.0000000000            0.0000000000            0.0000000000
 CL#3       0.0000000000            0.0000000000            0.0000000000



                     Kinetic energy integral Hessian
                     -------------------------------


           Symmetry 1

           O #1 x      O #1 y      H #2 x      H #2 y      CL#3 x      CL#3 y

 O #1 x    0.348820
 O #1 y    0.064577   -0.113982
 H #2 x    0.030989   -0.090468   -0.036830
 H #2 y   -0.090468   -0.106530    0.090105    0.109491
 CL#3 x   -0.379809    0.025891    0.005841    0.000363    0.373968
 CL#3 y    0.025891    0.220512    0.000363   -0.002961   -0.026254   -0.217551


           Symmetry 2

           O #1 z      H #2 z      CL#3 z

 O #1 z   -0.294091
 H #2 z    0.081826   -0.080673
 CL#3 z    0.212265   -0.001153   -0.211111




           O #1 x      O #1 y      O #1 z      H #2 x      H #2 y      H #2 z

 O #1 x    0.348820
 O #1 y    0.064577   -0.113982
 O #1 z    0.000000    0.000000   -0.294091

 H #2 x    0.030989   -0.090468    0.000000   -0.036830
 H #2 y   -0.090468   -0.106530    0.000000    0.090105    0.109491
 H #2 z    0.000000    0.000000    0.081826    0.000000    0.000000   -0.080673

 CL#3 x   -0.379809    0.025891    0.000000    0.005841    0.000363    0.000000
 CL#3 y    0.025891    0.220512    0.000000    0.000363   -0.002961    0.000000
 CL#3 z    0.000000    0.000000    0.212265    0.000000    0.000000   -0.001153


           CL#3 x      CL#3 y      CL#3 z

 CL#3 x    0.373968
 CL#3 y   -0.026254   -0.217551
 CL#3 z    0.000000    0.000000   -0.211111




                   Nuclear attraction integral Hessian
                   -----------------------------------


           Symmetry 1

           O #1 x      O #1 y      H #2 x      H #2 y      CL#3 x      CL#3 y

 O #1 x  -13.200328
 O #1 y    0.545463    9.475283
 H #2 x   -1.085465    1.245087    0.909470
 H #2 y    1.236008    0.832715   -1.673722   -1.059731
 CL#3 x   14.285794   -1.790550    0.175995    0.437714  -14.461789
 CL#3 y   -1.781470  -10.307998    0.428634    0.227016    1.352836   10.080982


           Symmetry 2

           O #1 z      H #2 z      CL#3 z

 O #1 z   11.527204
 H #2 z   -1.764388    1.949998
 CL#3 z   -9.762816   -0.185610    9.948426




           O #1 x      O #1 y      O #1 z      H #2 x      H #2 y      H #2 z

 O #1 x  -13.200328
 O #1 y    0.545463    9.475283
 O #1 z    0.000000    0.000000   11.527204

 H #2 x   -1.085465    1.245087    0.000000    0.909470
 H #2 y    1.236008    0.832715    0.000000   -1.673722   -1.059731
 H #2 z    0.000000    0.000000   -1.764388    0.000000    0.000000    1.949998

 CL#3 x   14.285794   -1.790550    0.000000    0.175995    0.437714    0.000000
 CL#3 y   -1.781470  -10.307998    0.000000    0.428634    0.227016    0.000000
 CL#3 z    0.000000    0.000000   -9.762816    0.000000    0.000000   -0.185610


           CL#3 x      CL#3 y      CL#3 z

 CL#3 x  -14.461789
 CL#3 y    1.352836   10.080982
 CL#3 z    0.000000    0.000000    9.948426




                Highest order reorthonormalization Hessian
                ------------------------------------------


           Symmetry 1

           O #1 x      O #1 y      H #2 x      H #2 y      CL#3 x      CL#3 y

 O #1 x    0.000000
 O #1 y    0.000000    0.000000
 H #2 x    0.000000    0.000000    0.000000
 H #2 y    0.000000    0.000000    0.000000    0.000000
 CL#3 x    0.000000    0.000000    0.000000    0.000000    0.000000
 CL#3 y    0.000000    0.000000    0.000000    0.000000    0.000000    0.000000


           Symmetry 2

           O #1 z      H #2 z      CL#3 z

 O #1 z    0.000000
 H #2 z    0.000000    0.000000
 CL#3 z    0.000000    0.000000    0.000000




           O #1 x      O #1 y      O #1 z      H #2 x      H #2 y      H #2 z


           CL#3 x      CL#3 y      CL#3 z




                Electronic contributions to dipole moment
                -----------------------------------------

                               au             Debye

                    x      2.91361799      7.40567953
                    y      0.57880477      1.47117524

  Conversion factor used: 1 a.u. =   2.54174691 Debye 



   Electronic contributions to static part of dipole moment derivatives
   --------------------------------------------------------------------


                     Total dipole moment derivatives
                     -------------------------------


           Symmetry 1
                              Ex             Ey

               O #1 x    -8.72929063    -0.08464271
               O #1 y    -0.32174894    -8.75572529
               H #2 x    -0.52212070     0.07040267
               H #2 y     0.36381946    -0.42967704
               CL#3 x   -16.74858867     0.01424004
               CL#3 y    -0.04207053   -16.81459767

           Symmetry 2
                              Ez

               O #1 z    -8.40451838
               H #2 z    -0.73999419
               CL#3 z   -16.85548743



                       Ex          Ey          Ez

      O #1    x   -8.729291   -0.084643    0.000000
      O #1    y   -0.321749   -8.755725    0.000000
      O #1    z    0.000000    0.000000   -8.404518

      H #2    x   -0.522121    0.070403    0.000000
      H #2    y    0.363819   -0.429677    0.000000
      H #2    z    0.000000    0.000000   -0.739994

      CL#3    x  -16.748589    0.014240    0.000000
      CL#3    y   -0.042071  -16.814598    0.000000
      CL#3    z    0.000000    0.000000  -16.855487

 Evaluation of 1e integral derivatives required    1.62 seconds.
 Evaluation of 2el integral derivatives

                      Two-electron integral gradient
                      ------------------------------

                         O #1 x    11.7080751215
                         O #1 y    -2.3622267482
                         H #2 x     1.1953147606
                         H #2 y     1.9669629141
                         CL#3 x   -12.9033898820
                         CL#3 y     0.3952638341


 O #1      11.7080751215           -2.3622267482            0.0000000000
 H #2       1.1953147606            1.9669629141            0.0000000000
 CL#3     -12.9033898820            0.3952638341            0.0000000000


 Evaluation of 2e integral derivatives required  325.16 seconds.

                            Molecular gradient
                            ------------------

                         O #1 x    -0.0754280256
                         O #1 y     0.1938004488
                         H #2 x    -0.0850370650
                         H #2 y    -0.1944284556
                         CL#3 x     0.1604650906
                         CL#3 y     0.0006280068


 O #1      -0.0754280256            0.1938004488            0.0000000000
 H #2      -0.0850370650           -0.1944284556            0.0000000000
 CL#3       0.1604650906            0.0006280068            0.0000000000


  Molecular gradient norm 0.338E+00

                            Molecular hessian
                            -----------------


           Symmetry 1

           O #1 x      O #1 y      H #2 x      H #2 y      CL#3 x      CL#3 y

 O #1 x    2.060897
 O #1 y    0.853492    2.930372
 H #2 x   -0.331778   -1.476702    0.330054
 H #2 y   -1.277374   -3.699882    1.270191    3.651419
 CL#3 x   -1.729119    0.801854   -0.018217   -0.022687    1.747336
 CL#3 y    0.423882    0.769510   -0.007603    0.005401   -0.416279   -0.774911


           Symmetry 2

           O #1 z      H #2 z      CL#3 z

 O #1 z    0.141612
 H #2 z   -0.035430    0.034890
 CL#3 z   -0.106182    0.001572    0.104610




           O #1 x      O #1 y      O #1 z      H #2 x      H #2 y      H #2 z

 O #1 x    2.060897
 O #1 y    0.853492    2.930372
 O #1 z    0.000000    0.000000    0.141612

 H #2 x   -0.331778   -1.476702    0.000000    0.330054
 H #2 y   -1.277374   -3.699882    0.000000    1.270191    3.651419
 H #2 z    0.000000    0.000000   -0.035430    0.000000    0.000000    0.034890

 CL#3 x   -1.729119    0.801854    0.000000   -0.018217   -0.022687    0.000000
 CL#3 y    0.423882    0.769510    0.000000   -0.007603    0.005401    0.000000
 CL#3 z    0.000000    0.000000   -0.106182    0.000000    0.000000    0.001572


           CL#3 x      CL#3 y      CL#3 z

 CL#3 x    1.747336
 CL#3 y   -0.416279   -0.774911
 CL#3 z    0.000000    0.000000    0.104610




                           Total dipole moment
                           -------------------

                               au             Debye

                    x     -0.19722351     -0.50129225
                    y     -0.63599212     -1.61653101

  Conversion factor used: 1 a.u. =   2.54174691 Debye 



                     Total dipole moment derivatives
                     -------------------------------


           Symmetry 1
                              Ex             Ey

               O #1 x     0.00285503     0.18322896
               O #1 y     0.17647983     0.05899004
               H #2 x     0.07555986    -0.14444202
               H #2 y    -0.24081498    -0.09392863
               CL#3 x    -0.07841453    -0.03878643
               CL#3 y     0.06433538     0.03493885

           Symmetry 2
                              Ez

               O #1 z    -0.24617637
               H #2 z     0.23125787
               CL#3 z     0.01491833



                       Ex          Ey          Ez

      O #1    x    0.002855    0.183229    0.000000
      O #1    y    0.176480    0.058990    0.000000
      O #1    z    0.000000    0.000000   -0.246176

      H #2    x    0.075560   -0.144442    0.000000
      H #2    y   -0.240815   -0.093929    0.000000
      H #2    z    0.000000    0.000000    0.231258

      CL#3    x   -0.078415   -0.038786    0.000000
      CL#3    y    0.064335    0.034939    0.000000
      CL#3    z    0.000000    0.000000    0.014918

  Molecular gradient does not satisfy rotational invariance condition.
   rotational invariance in yz-plane :        0.0000E+00
   rotational invariance in xz-plane :        0.0000E+00
   rotational invariance in xy-plane :        -.1373E-01
 @CHECKOUT-I, Total execution time (CPU/WALL):      326.90/      47.40 seconds.
--executable xvdint finished with status     0 in       47.50 seconds (walltime).
 --invoking executable--
/home/asmola/.local/bin/xjoda
  @GTFLGS-I, Hessian will be transformed to curvilinear coordinates.
  @GTFLGS-I, Hessian will be transformed to curvilinear coordinates.
  igrd and ihes are                      0                     1
  gradient from JOBARC 
  -0.075428025563694   0.193800448814791   0.000000000000000
  -0.085037065033985  -0.194428455571713   0.000000000000000
   0.160465090597665   0.000628006756922   0.000000000000000
 
  @PROJFCM-I, Projecting force constant matrix onto totally symmetric subspace.
  Largest difference between matrix elements of symmetrized
  and unsymmetrized FCM :     0.0000000000E+00.
  read isotopes from ZMAT file 
 
  Summary of diagonal Born-Oppenheimer correction at the correlated level
  The total diagonal Born-Oppenheimer correction (DBOC) is:      0.0084183594 a.u.
  The total diagonal Born-Oppenheimer correction (DBOC) is:       1847.616334 cm-1
  The total diagonal Born-Oppenheimer correction (DBOC) is:            22.102 kJ/mole
  hellooooooo 
  readis is  F
 
 @CHECKOUT-I, Total execution time (CPU/WALL):        0.01/       0.06 seconds.
--executable xjoda finished with status     0 in        0.09 seconds (walltime).
  The final electronic energy is      -535.672432817980052 a.u. 
  This computation required                         2956.59 seconds (walltime).
