 --invoking executable--
/home/asmola/.local/bin/xjoda


   *************************************************************************
         <<<     CCCCCC     CCCCCC   |||     CCCCCC     CCCCCC   >>>
       <<<      CCC        CCC       |||    CCC        CCC         >>>
      <<<      CCC        CCC        |||   CCC        CCC            >>>
    <<<        CCC        CCC        |||   CCC        CCC              >>>
      <<<      CCC        CCC        |||   CCC        CCC            >>>
       <<<      CCC        CCC       |||    CCC        CCC         >>>
         <<<     CCCCCC     CCCCCC   |||     CCCCCC     CCCCCC   >>>
   *************************************************************************

     ****************************************************************
     * CFOUR Coupled-Cluster techniques for Computational Chemistry *
     ****************************************************************
 

   Department of Chemistry                Institut fuer Physikalische Chemie
   University of Florida                  Universitaet Mainz
   Gainesville, FL 32611, USA             D-55099 Mainz, Germany

   Department of Chemistry                Fakultaet fuer Chemie und Biowiss.
   Johns Hopkins University               Karlsruher Institut fuer Technologie
   Baltimore, MD 21218, USA               D-76131 Karlsruhe, Germany

   Department of Chemistry                Department of Physical Chemistry
   Southern Methodist University          Eotvos Lorand University
   Dallas, TX 75275, USA                  H-1053 Budapest, Hungary

 
                       Version 2.1
 
                     vincent.theory.phys.ucl.ac.uk                     
                     Fri 31 Jan 09:00:06 GMT 2025                      
                     integer*8 version is running
 
********************************************************************************
*                          Input from ZMAT file                                *
********************************************************************************
Hypochlorous acid DBOC calculation                                              
O                                                                               
H 1 ROH                                                                         
CL 1 ROCL 2 A                                                                   
                                                                                
ROH=2.0500000000000007                                                          
ROCL=1.683                                                                      
A=107.0                                                                         
                                                                                
                                                                                
*CFOUR(CALC=CCSD,BASIS=AUG-PCVTZ,SCF_CONV=10                                    
CC_CONV=10,DBOC=ON,MEMORY=500000000)                                            
********************************************************************************
  @GTFLGS-I, Hessian will be transformed to curvilinear coordinates.
    -------------------------------------------------------------------
                    CFOUR Control Parameters 
    -------------------------------------------------------------------
        External           Internal           Value            Units
          Name               Name
    -------------------------------------------------------------------
       ABCDTYPE             IABCDT         STANDARD    [  0]    ***   
       ANHARMONIC           IANHAR         OFF         [  0]    ***   
       ANH_ALGORIT          IANALG         STANDARD    [  0]    ***   
       ANH_DERIVAT          IANDER         SECOND      [  1]    ***   
       ANH_MODE             ANHMOD         VIBRATION   [  0]    ***   
       ANH_STEPSIZ          ICUBST             50000          x 10-6  
       ANH_SYMMETR          IANHSM         ABELIAN     [  0]    ***   
       AO_LADDERS           IAOLAD         SINGLEPASS  [  1]    ***   
       AV_SCF               IAVSCF         OFF         [  0]    ***   
       BASIS                IBASIS         AUG-PCVTZ   [ 51]    ***   
       BOTHVECTORS          BOTHVC         OFF         [  0]    ***   
       BOX_POTENT           IPIAB          OFF         [  0]    ***   
       BREIT                IBREIT         OFF         [  0]    ***   
       BRUCK_CONV           IBRTOL          10D-  4             ***   
       BRUECKNER            IBRKNR         OFF         [  0]    ***   
       BUFFERSIZE           IBUFFS              4096            ***   
       CACHE_RECS           ICHREC             10               ***   
       CALCLEVEL            ICLLVL         CCSD        [ 10]    ***   
       CCORBOPT             ICCORB         OFF         [  0]  x 0.01  
       CC_CONV              ICCCNV          10D- 10             ***   
       CC_EXPORDER          ICCEOR              5               ***   
       CC_EXTRAPOL          ICCEXT         DIIS        [  1]    ***   
       CC_GUESS             ICCGES         MP2         [  0]    ***   
       CC_MAXCYC            ICCCYC            100              cycles 
       CC_PROGRAM           ICCPRO         VCC         [  0]    ***   
       CHARGE               ICHRGE              0               ***   
       CHOLESKY             ICHOLE         OFF         [  0]    ***   
       CIS_CONV             ICISTL              5               ***   
       COMM_SIZE            IPSIZE            ***               ***   
       CONSTANT             ICONST         OLD         [  1]    ***   
       CONTINUUM            ICONTU         NONE        [  0]    ***   
       CONTRACTION          ICNTYP         GENERAL     [  1]    ***   
       COORDINATES          ICOORD         INTERNAL    [  0]    ***   
       CPHF_CONVER          ICPHFT          10D- 16             ***   
       CPHF_MAXCYC          ICPHFC             64              cycles 
       CUBIC                ICUBIC         OFF         [  0]    ***   
       CURVILINEAR          ICURVY         ON          [  1]    ***   
       DBOC                 IDBOC          ON          [  1]    ***   
       DCT                  IDCT           OFF         [  0]    ***   
       DERIV_LEV            IDRLVL         SECOND      [  2]    ***   
       DEVMEM_SIZE          IDVMEM          50000000           MByte  
       DIAG_MRCC            IEOMST          10D-  0             ***   
       DIFF_TYPE            IDIFTY         RELAXED     [  0]    ***   
       DIRECT               IDIRCT         OFF         [  0]    ***   
       DROPMO               IDRPMO      NONE         
       ECP                  IECP           OFF         [  0]    ***   
       EIGENVECTOR          IVEC                1               ***   
       EL_ANHARM            IELANH         OFF         [  0]    ***   
       EOMFOLLOW            IEOMSR         ENERGY      [  0]    ***   
       EOMIP                IEOMIP         OFF         [  0]    ***   
       EOMLEVEL             HBARFM         SAME        [  0]    ***   
       EOM_MRCC             IMRCCE         NEW         [  1]    ***   
       EOM_NONIT            EOMNON         OFF         [  0]    ***   
       EOM_NSING            IEOMSI          10D-  0             ***   
       EOM_NSTATES          IMRCCD         DAVIDSON    [  0]    ***   
       EOM_NTRIP            IEOMTR          10D-  0             ***   
       EOM_ORDER            IEXORD         ENERGY      [  0]    ***   
       EOM_PROPSTA          IEOMST              0               ***   
       ESTATE_CONV          IEXTOL          10D-  5             ***   
       ESTATE_DIAG          IEXDIG         ITERATIVE   [  0]    ***   
       ESTATE_LOCK          IESLOC         ON          [  1]    ***   
       ESTATE_MAXC          IEXMXC             40               ***   
       ESTATE_PROP          IEXPRP         OFF         [  0]    ***   
       EVAL_HESS            IRECAL              0            # of cyc.
       EXCITATION           IEXCIT              0               ***   
       EXCITE               IEXCIT         NONE        [  0]    ***   
       EXTERN_POT           IEXPOT         OFF         [  0]    ***   
       FCGRADNEW            IFCGNW         OFF         [  0]    ***   
       FC_FIELD             IFINFC              0             x 10-6  
       FD_CALTYPE           IFDCAL         GRADONLY    [  0]    ***   
       FD_PROJECT           IFDPRJ         OFF         [  1]    ***   
       FD_STEPSIZE          IDISFD              0            10-4 bohr
       FD_USEGROUP          IFDGRP         FULL        [  0]    ***   
       FILE_RECSIZ          IFLREC              4096           words  
       FINITE_PERT          IFIPER              0             x 10-6  
       FIXGEOM              IFIXGM         OFF         [  0]    ***   
       FOCK                 IFOCK          AO          [  1]    ***   
       FREQ_ALGORI          IVIALG         STANDARD    [  0]    ***   
       FROZEN_CORE          IFROCO         OFF         [  0]    ***   
       GAMMA_ABCD           IGABCD         STORE       [  0]    ***   
       GAMMA_ABCI           IGABCI         STORE       [  0]    ***   
       GENBAS_1             IGNBS1              0               ***   
       GENBAS_2             IGNBS2              0               ***   
       GENBAS_3             IGNBS3              0               ***   
       GENBAS_4             IGNBS4              0               ***   
       GEO_CONV             ICONTL              5              H/bohr 
       GEO_MAXCYC           IOPTCY             50               ***   
       GEO_MAXSTEP          IMXSTP            300            millibohr
       GEO_METHOD           INR            SINGLE_POINT[  5]    ***   
       GIAO                 IGIAO          OFF         [  1]    ***   
       GIMIC                IGIMIC         OFF         [  0]    ***   
       GRID                 IGRID          OFF         [  0]    ***   
       GRID_ALGO            IGALGO         SERIAL      [  0]    ***   
       GUESS                IGUESS         MOREAD      [  0]    ***   
       HBAR                 IHBAR          OFF         [  0]    ***   
       HESS_TYPE            IHESTP         SCF         [  0]    ***   
       HF2_FILE             IHF2Fl         USE         [  1]    ***   
       HFSTABILITY          ISTABL         OFF         [  0]    ***   
       INCORE               INCORE         OFF         [  0]    ***   
       INPUT_MRCC           IMRCC          ON          [  1]    ***   
       INTEGRALS            INTTYP         VMOL        [  1]    ***   
       JODA_PRINT           IJPRNT              0               ***   
       KEYWORD_OUT          IDMPKW         NO          [  0]    ***   
       LINDEP_TOL           ILINDP              8               ***   
       LINEQ_CONV           IZTACN          10D-  7           cycles  
       LINEQ_EXPOR          ILMAXD              5               ***   
       LINEQ_MAXCY          ILMAXC            100               ***   
       LINEQ_TYPE           ILTYPE         DIIS        [  1]    ***   
       LOCK_ORBOCC          ILOCOC         OFF         [  0]    ***   
       MEMORY_SIZE          IMEMSZ         500000000           words  
       MEM_UNIT             IMEMU          INTEGERWORDS[  0]    ***   
       MRCC                 IMRCCC         OFF         [  0]    ***   
       MULTIPLICTY          IMULTP              1               ***   
       NACOUPLING           IVCOUP         OFF         [  0]    ***   
       NEGEVAL              IDIE           ABORT       [  0]    ***   
       NEWNORM              INEWNO         OFF         [  0]    ***   
       NON-HF               INONHF         OFF         [  0]    ***   
       NTOP_TAMP            ITOPT2             15               ***   
       NUC_MODEL            INUCMO         POINT       [  0]    ***   
       OCCUPATION           IOCCU   ESTIMATED BY SCF 
       OPEN-SHELL           IOPEN          SPIN-ORBITAL[  0]    ***   
       OPTVIB               IOPTVB         OFF         [  0]    ***   
       ORBITALS             IORBTP         STANDARD    [  0]    ***   
       PARALLEL             IPARAL         ON          [  1]    ***   
       PARA_INT             IPINTS         ON          [  1]    ***   
       PARA_PRINT           IPPRIN              0               ***   
       PERT_ORB             IPTORB         STANDARD    [  0]    ***   
       POINTS               IGRDFD              0               ***   
       PRINT                IPRNT               0               ***   
       PROPS                IPROPS         OFF         [  0]    ***   
       PROP_INTEGR          IINTYP         INTERNAL    [  0]    ***   
       PSI                  IPSI           OFF         [  0]    ***   
       QC_ALG               IQCALG         FLM         [  0]    ***   
       QC_LINALG            IQCLIN         TRIDIAG     [  2]    ***   
       QC_MAXCYC            IQCMAX          10D-100           cycles  
       QC_MAXSCFCY          IQCMSC          10D- 15           cycles  
       QC_RTRUST            IQCRTR          10D-  0           x 10-3  
       QC_SKIPSCF           IQCSKI         OFF         [  0]    ***   
       QC_START             IQCSTA          10D-  1             ***   
       QRHFGUESS            IQGUES         OFF         [  0]    ***   
       QUARTIC              IQUART         OFF         [  0]    ***   
       RAMAN_INT            IRAMIN         OFF         [  0]    ***   
       RAMAN_ORB            IRAMRE         UNRELAXED   [  0]    ***   
       RDO                  IRDOFM         ON          [  1]    ***   
       REDUCE_REPR          REDREP         Ir          [  0]    ***   
       REFERENCE            IREFNC         RHF         [  0]    ***   
       RELATIVIST           IRELAT         OFF         [  0]    ***   
       RELAX_DENS           IRDENS         ON          [  1]    ***   
       RESET_FLAGS          IRESET         OFF         [  0]    ***   
       RESTART_CC           ICCRES         OFF         [  0]    ***   
       ROT_EVEC             ROTVEC              0               ***   
       SAVE_INTS            ISVINT         OFF         [  0]    ***   
       SCALE_ON             ISTCRT              0               ***   
       SCF_CONV             ISCFCV          10D- 10             ***   
       SCF_DAMPING          IDAMP               0             x 10-3  
       SCF_EXPORDE          IRPPOR              6               ***   
       SCF_EXPSTAR          IRPPLS              8               ***   
       SCF_EXTRAPO          IRPP           ON          [  1]    ***   
       SCF_MAXCYC           ISCFCY            150              cycles 
       SCF_NOSTOP           ISCFST         OFF         [  0]    ***   
       SCF_PRINT            ISCFPR              0               ***   
       SCF_PROG             ISCFPR         SCF         [  0]    ***   
       SD_FIELD             IFINSD              0             x 10-6  
       SOPERT               IPERSO         OFF         [  0]    ***   
       SPHERICAL            IDFGHI         ON          [  1]    ***   
       SPINORBIT            ISOCAL         OFF         [  0]    ***   
       SPINROTATIO          ISRCON         OFF         [  0]    ***   
       SPIN_FLIP            ISPFLP         OFF         [  0]    ***   
       SPIN_ORBIT           ISPORB         OFF         [  0]    ***   
       SPIN_SCAL            ISCSMP         OFF         [  0]    ***   
       STEEPSCALE           ISTPSC              1000          x 10-3  
       SUBGROUP             ISUBGP         DEFAULT     [  0]    ***   
       SUBGRPAXIS           ISBXYZ         X           [  0]    ***   
       SYMMETRY             ISYM           ON          [  0]    ***   
       SYM_CHECK            ISYMCK         OVERRIDE    [  1]    ***   
       T3_EXTRAPOL          IT3EXT         OFF         [  0]    ***   
       T4_EXTRAPOL          IT4EXP         OFF         [  0]    ***   
       TAMP_SUM             IEVERY              5               ***   
       TESTSUITE            ITESTS         OFF         [  0]    ***   
       THERMOCH             ITHERM         OFF         [  0]    ***   
       TOL_CHOLESK          ITOLCH          10D-  4             ***   
       TRANGRAD             IRESRM         OFF         [  0]    ***   
       TRANS_INV            ITRAIN         IGNORE      [  1]    ***   
       TREAT_PERT           ITREAT         SIMULTANEOUS[  0]    ***   
       TRIP_ALGORI          ITRALG         NORMAL      [  0]    ***   
       UIJ_THRESHO          IUIJTH              1               ***   
       UNITS                IUNITS         ANGSTROM    [  0]    ***   
       UNOS                 IUNOS          OFF         [  0]    ***   
       UPDATE_HESS          IHUPDT         ON          [  1]    ***   
       VIBPHASE             ISETPH         STANDARD    [  0]    ***   
       VIBRATION            IVIB           ANALYTIC    [  1]    ***   
       VIB_ALGORIT          IGEALG         STANDARD    [  0]    ***   
       VNATORB              IVNORB         OFF         [  0]    ***   
       VTRAN                IVTRAN         FULL/PARTIAL[  0]    ***   
       XFIELD               IXEFLD              0             x 10-6  
       XFORM_TOL            IXFTOL          10D- 11             ***   
       YFIELD               IYEFLD              0             x 10-6  
       ZFIELD               IZEFLD              0             x 10-6  
       ZSCALE_EXP           IZEXPS         OFF         [  0]    ***   
    -------------------------------------------------------------------
   3 entries found in Z-matrix 
   Job Title : Hypochlorous acid DBOC calculation                                              
   There are  3 unique internal coordinates.
   Of these,  0 will be optimized.
   User supplied Z-matrix: 
--------------------------------------------------------------------------------
       SYMBOL    BOND      LENGTH    ANGLE     ANGLE     DIHED     ANGLE
                  TO      (ANGST)    WRT      (DEG)      WRT      (DEG)
--------------------------------------------------------------------------------
        O    
        H          1         ROH  
        CL         1         ROCL       2        A    
                  *Initial values for internal coordinates* 
                      Name             Value
                        ROH             2.0500000000
                        ROCL            1.6830000000
                        A             107.0000000000
--------------------------------------------------------------------------------
   Rotational constants (in cm-1): 
          0.4444921769             0.4885768713             4.9261676942
   Rotational constants (in MHz): 
      13325.5420954628         14647.1681685863        147682.8128462506
********************************************************************************
   The full molecular point group is C s .
   The largest Abelian subgroup of the full molecular point group is C s .
   The computational point group is C s .
********************************************************************************
--------------------------------------------------------------------------------
   Analysis of internal coordinates specified by Z-matrix 
--------------------------------------------------------------------------------
   *The nuclear repulsion energy is   47.816839080823705 a.u.
   *There are   3 degrees of freedom within the tot. symm. molecular subspace.
   *Z-matrix requests optimization of   0 coordinates.
   *The optimization is constrained.
   *The following   3 parameters can have non-zero 
    derivatives within the totally symmetric subspace:
             A    [ 3]  ROH  [ 1]  ROCL [ 2]
   *The following   0 parameters are to be optimized:

   *The following coordinates must be varied in an  unconstrained optimization.
             A    [ 3]  ROH  [ 1]  ROCL [ 2]
--------------------------------------------------------------------------------


 ----------------------------------------------------------------
         Coordinates used in calculation (QCOMP) 
 ----------------------------------------------------------------
 Z-matrix   Atomic            Coordinates (in bohr)
  Symbol    Number           X              Y              Z
 ----------------------------------------------------------------
     O         8        -2.09720178     0.30440589     0.00000000
     H         1        -3.63051596    -3.25317108     0.00000000
     CL       17         1.06390360    -0.04547816     0.00000000
 ----------------------------------------------------------------
 
   Interatomic distance matrix (Angstroms) 
 
                 O             H             CL   
                [ 1]        [ 2]        [ 3]
  O    [ 1]     0.00000
  H    [ 2]     2.05000     0.00000
  CL   [ 3]     1.68300     3.00873     0.00000
 rotcon2
   Rotational constants (in cm-1): 
          4.9261676942             0.4885768713             0.4444921769
   Rotational constants (in MHz): 
     147682.8128462506         14647.1681685863         13325.5420954628
  ECPDATA file not present.   Using default ECPDATA. 
  @GTFLGS-I, Hessian will be transformed to curvilinear coordinates.
  There are  157 basis functions.
 @CHECKOUT-I, Total execution time (CPU/WALL):        0.25/       0.36 seconds.
--executable xjoda finished with status     0 in        0.42 seconds (walltime).
 --invoking executable--
/home/asmola/.local/bin/xvmol
 SERIAL VERSION OF MOLECULE STARTED
********************************************************************************
                    INPUT FROM MOL FILE
********************************************************************************
INTGRL        1    0    1    0    0    0    0    0    0                         
         *** CFOUR Program System (Release V0.1) ***                            
Hypochlorous acid DBOC calculation                                              
    3    1 Z          0.10E-08              0    0                              
   9999.00      3.00                                                            
          8.00000000    1    4    1    1    1    1                              
O #1  -2.097201781153666   0.304405886145368   0.000000000000000                
   13    7                                                                      
   15330.0000000000       5.080000000000000E-004 -1.150000000000000E-004        
  0.000000000000000E+000  0.000000000000000E+000  0.000000000000000E+000        
  0.000000000000000E+000  0.000000000000000E+000                                
   2299.00000000000       3.929000000000000E-003 -8.950000000000000E-004        
  0.000000000000000E+000  0.000000000000000E+000  0.000000000000000E+000        
  0.000000000000000E+000  0.000000000000000E+000                                
   522.400000000000       2.024300000000000E-002 -4.636000000000000E-003        
  0.000000000000000E+000  0.000000000000000E+000  0.000000000000000E+000        
  0.000000000000000E+000  0.000000000000000E+000                                
   147.300000000000       7.918100000000000E-002 -1.872400000000000E-002        
  0.000000000000000E+000  0.000000000000000E+000  0.000000000000000E+000        
  0.000000000000000E+000  0.000000000000000E+000                                
   47.5500000000000       0.230687000000000      -5.846300000000000E-002        
  0.000000000000000E+000  0.000000000000000E+000  0.000000000000000E+000        
  0.000000000000000E+000  0.000000000000000E+000                                
   16.7600000000000       0.433118000000000      -0.136463000000000             
  0.000000000000000E+000  0.000000000000000E+000  0.000000000000000E+000        
  0.000000000000000E+000  0.000000000000000E+000                                
   6.20700000000000       0.350260000000000      -0.175740000000000             
  0.000000000000000E+000  0.000000000000000E+000  0.000000000000000E+000        
  0.000000000000000E+000  0.000000000000000E+000                                
   1.75200000000000       4.272800000000000E-002  0.160934000000000             
   1.00000000000000       0.000000000000000E+000  0.000000000000000E+000        
  0.000000000000000E+000  0.000000000000000E+000                                
  0.688200000000000      -8.154000000000000E-003  0.603418000000000             
  0.000000000000000E+000  0.000000000000000E+000  0.000000000000000E+000        
  0.000000000000000E+000  0.000000000000000E+000                                
  0.238400000000000       2.381000000000000E-003  0.378765000000000             
  0.000000000000000E+000   1.00000000000000       0.000000000000000E+000        
  0.000000000000000E+000  0.000000000000000E+000                                
   7.84500000000000       0.000000000000000E+000  0.000000000000000E+000        
  0.000000000000000E+000  0.000000000000000E+000   1.00000000000000             
  0.000000000000000E+000  0.000000000000000E+000                                
   21.0320000000000       0.000000000000000E+000  0.000000000000000E+000        
  0.000000000000000E+000  0.000000000000000E+000  0.000000000000000E+000        
   1.00000000000000       0.000000000000000E+000                                
  7.376000000000001E-002  0.000000000000000E+000  0.000000000000000E+000        
  0.000000000000000E+000  0.000000000000000E+000  0.000000000000000E+000        
  0.000000000000000E+000   1.00000000000000                                     
    8    6                                                                      
   34.4600000000000       1.592800000000000E-002  0.000000000000000E+000        
  0.000000000000000E+000  0.000000000000000E+000  0.000000000000000E+000        
  0.000000000000000E+000                                                        
   7.74900000000000       9.974000000000000E-002  0.000000000000000E+000        
  0.000000000000000E+000  0.000000000000000E+000  0.000000000000000E+000        
  0.000000000000000E+000                                                        
   2.28000000000000       0.310492000000000       0.000000000000000E+000        
  0.000000000000000E+000  0.000000000000000E+000  0.000000000000000E+000        
  0.000000000000000E+000                                                        
  0.715600000000000       0.491026000000000        1.00000000000000             
  0.000000000000000E+000  0.000000000000000E+000  0.000000000000000E+000        
  0.000000000000000E+000                                                        
  0.214000000000000       0.336337000000000       0.000000000000000E+000        
   1.00000000000000       0.000000000000000E+000  0.000000000000000E+000        
  0.000000000000000E+000                                                        
   15.1590000000000       0.000000000000000E+000  0.000000000000000E+000        
  0.000000000000000E+000   1.00000000000000       0.000000000000000E+000        
  0.000000000000000E+000                                                        
   57.4370000000000       0.000000000000000E+000  0.000000000000000E+000        
  0.000000000000000E+000  0.000000000000000E+000   1.00000000000000             
  0.000000000000000E+000                                                        
  5.974000000000000E-002  0.000000000000000E+000  0.000000000000000E+000        
  0.000000000000000E+000  0.000000000000000E+000  0.000000000000000E+000        
   1.00000000000000                                                             
    4    4                                                                      
   2.31400000000000        1.00000000000000       0.000000000000000E+000        
  0.000000000000000E+000  0.000000000000000E+000                                
  0.645000000000000       0.000000000000000E+000   1.00000000000000             
  0.000000000000000E+000  0.000000000000000E+000                                
   15.8580000000000       0.000000000000000E+000  0.000000000000000E+000        
   1.00000000000000       0.000000000000000E+000                                
  0.214000000000000       0.000000000000000E+000  0.000000000000000E+000        
  0.000000000000000E+000   1.00000000000000                                     
    2    2                                                                      
   1.42800000000000        1.00000000000000       0.000000000000000E+000        
  0.500000000000000       0.000000000000000E+000   1.00000000000000             
          1.00000000    1    3    1    1    1                                   
H #2  -3.630515958828104  -3.253171077827657   0.000000000000000                
    6    4                                                                      
   33.8700000000000       6.068000000000000E-003  0.000000000000000E+000        
  0.000000000000000E+000  0.000000000000000E+000                                
   5.09500000000000       4.530800000000000E-002  0.000000000000000E+000        
  0.000000000000000E+000  0.000000000000000E+000                                
   1.15900000000000       0.202822000000000       0.000000000000000E+000        
  0.000000000000000E+000  0.000000000000000E+000                                
  0.325800000000000       0.503903000000000        1.00000000000000             
  0.000000000000000E+000  0.000000000000000E+000                                
  0.102700000000000       0.383421000000000       0.000000000000000E+000        
   1.00000000000000       0.000000000000000E+000                                
  2.526000000000000E-002  0.000000000000000E+000  0.000000000000000E+000        
  0.000000000000000E+000   1.00000000000000                                     
    3    3                                                                      
   1.40700000000000        1.00000000000000       0.000000000000000E+000        
  0.000000000000000E+000                                                        
  0.388000000000000       0.000000000000000E+000   1.00000000000000             
  0.000000000000000E+000                                                        
  0.102000000000000       0.000000000000000E+000  0.000000000000000E+000        
   1.00000000000000                                                             
    2    2                                                                      
   1.05700000000000        1.00000000000000       0.000000000000000E+000        
  0.247000000000000       0.000000000000000E+000   1.00000000000000             
         17.00000000    1    4    1    1    1    1                              
CL#3   1.063903600771233  -0.045478155062175   0.000000000000000                
   18    8                                                                      
   456100.000000000       4.930000000000000E-005 -1.380000000000000E-005        
  4.200000000000000E-006  0.000000000000000E+000  0.000000000000000E+000        
  0.000000000000000E+000  0.000000000000000E+000  0.000000000000000E+000        
   68330.0000000000       3.830000000000000E-004 -1.073000000000000E-004        
  3.240000000000000E-005  0.000000000000000E+000  0.000000000000000E+000        
  0.000000000000000E+000  0.000000000000000E+000  0.000000000000000E+000        
   15550.0000000000       2.008500000000000E-003 -5.651000000000000E-004        
  1.711000000000000E-004  0.000000000000000E+000  0.000000000000000E+000        
  0.000000000000000E+000  0.000000000000000E+000  0.000000000000000E+000        
   4405.00000000000       8.385600000000000E-003 -2.361400000000000E-003        
  7.142000000000000E-004  0.000000000000000E+000  0.000000000000000E+000        
  0.000000000000000E+000  0.000000000000000E+000  0.000000000000000E+000        
   1439.00000000000       2.947030000000000E-002 -8.458900000000000E-003        
  2.567000000000000E-003  0.000000000000000E+000  0.000000000000000E+000        
  0.000000000000000E+000  0.000000000000000E+000  0.000000000000000E+000        
   520.400000000000       8.783249999999999E-002 -2.596380000000000E-002        
  7.885500000000000E-003  0.000000000000000E+000  0.000000000000000E+000        
  0.000000000000000E+000  0.000000000000000E+000  0.000000000000000E+000        
   203.100000000000       0.211473000000000      -6.863619999999999E-002        
  2.108670000000000E-002  0.000000000000000E+000  0.000000000000000E+000        
  0.000000000000000E+000  0.000000000000000E+000  0.000000000000000E+000        
   83.9600000000000       0.365364000000000      -0.141874000000000             
  4.422640000000000E-002  0.000000000000000E+000  0.000000000000000E+000        
  0.000000000000000E+000  0.000000000000000E+000  0.000000000000000E+000        
   36.2000000000000       0.340884000000000      -0.199319000000000             
  6.516700000000000E-002  0.000000000000000E+000  0.000000000000000E+000        
  0.000000000000000E+000  0.000000000000000E+000  0.000000000000000E+000        
   15.8300000000000       0.102133000000000      -1.956620000000000E-002        
  6.030100000000000E-003  0.000000000000000E+000  0.000000000000000E+000        
  0.000000000000000E+000  0.000000000000000E+000  0.000000000000000E+000        
   6.33400000000000       3.116800000000000E-003  0.499741000000000             
 -0.206495000000000       0.000000000000000E+000  0.000000000000000E+000        
  0.000000000000000E+000  0.000000000000000E+000  0.000000000000000E+000        
   2.69400000000000       1.057500000000000E-003  0.563736000000000             
 -0.405871000000000       0.000000000000000E+000  0.000000000000000E+000        
  0.000000000000000E+000  0.000000000000000E+000  0.000000000000000E+000        
  0.976800000000000      -3.780000000000000E-004  7.903250000000001E-002        
  7.595580000000000E-002   1.00000000000000       0.000000000000000E+000        
  0.000000000000000E+000  0.000000000000000E+000  0.000000000000000E+000        
  0.431300000000000       1.561000000000000E-004 -8.350900000000000E-003        
  0.725661000000000       0.000000000000000E+000  0.000000000000000E+000        
  0.000000000000000E+000  0.000000000000000E+000  0.000000000000000E+000        
  0.162500000000000      -5.140000000000000E-005  2.324600000000000E-003        
  0.394423000000000       0.000000000000000E+000   1.00000000000000             
  0.000000000000000E+000  0.000000000000000E+000  0.000000000000000E+000        
   15.0640000000000       0.000000000000000E+000  0.000000000000000E+000        
  0.000000000000000E+000  0.000000000000000E+000  0.000000000000000E+000        
   1.00000000000000       0.000000000000000E+000  0.000000000000000E+000        
   2.87400000000000       0.000000000000000E+000  0.000000000000000E+000        
  0.000000000000000E+000  0.000000000000000E+000  0.000000000000000E+000        
  0.000000000000000E+000   1.00000000000000       0.000000000000000E+000        
  5.910000000000000E-002  0.000000000000000E+000  0.000000000000000E+000        
  0.000000000000000E+000  0.000000000000000E+000  0.000000000000000E+000        
  0.000000000000000E+000  0.000000000000000E+000   1.00000000000000             
   12    7                                                                      
   663.300000000000       2.404500000000000E-003 -6.521000000000000E-004        
  0.000000000000000E+000  0.000000000000000E+000  0.000000000000000E+000        
  0.000000000000000E+000  0.000000000000000E+000                                
   156.800000000000       1.921480000000000E-002 -5.194500000000000E-003        
  0.000000000000000E+000  0.000000000000000E+000  0.000000000000000E+000        
  0.000000000000000E+000  0.000000000000000E+000                                
   49.9800000000000       8.850970000000000E-002 -2.469380000000000E-002        
  0.000000000000000E+000  0.000000000000000E+000  0.000000000000000E+000        
  0.000000000000000E+000  0.000000000000000E+000                                
   18.4200000000000       0.256020000000000      -7.281670000000000E-002        
  0.000000000000000E+000  0.000000000000000E+000  0.000000000000000E+000        
  0.000000000000000E+000  0.000000000000000E+000                                
   7.24000000000000       0.436927000000000      -0.134030000000000             
  0.000000000000000E+000  0.000000000000000E+000  0.000000000000000E+000        
  0.000000000000000E+000  0.000000000000000E+000                                
   2.92200000000000       0.350334000000000      -9.477420000000000E-002        
  0.000000000000000E+000  0.000000000000000E+000  0.000000000000000E+000        
  0.000000000000000E+000  0.000000000000000E+000                                
   1.02200000000000       5.854950000000000E-002  0.262289000000000             
   1.00000000000000       0.000000000000000E+000  0.000000000000000E+000        
  0.000000000000000E+000  0.000000000000000E+000                                
  0.381800000000000      -4.584200000000000E-003  0.564667000000000             
  0.000000000000000E+000  0.000000000000000E+000  0.000000000000000E+000        
  0.000000000000000E+000  0.000000000000000E+000                                
  0.130100000000000       2.269700000000000E-003  0.341250000000000             
  0.000000000000000E+000   1.00000000000000       0.000000000000000E+000        
  0.000000000000000E+000  0.000000000000000E+000                                
   9.48000000000000       0.000000000000000E+000  0.000000000000000E+000        
  0.000000000000000E+000  0.000000000000000E+000   1.00000000000000             
  0.000000000000000E+000  0.000000000000000E+000                                
   3.66800000000000       0.000000000000000E+000  0.000000000000000E+000        
  0.000000000000000E+000  0.000000000000000E+000  0.000000000000000E+000        
   1.00000000000000       0.000000000000000E+000                                
  4.190000000000000E-002  0.000000000000000E+000  0.000000000000000E+000        
  0.000000000000000E+000  0.000000000000000E+000  0.000000000000000E+000        
  0.000000000000000E+000   1.00000000000000                                     
    5    5                                                                      
   1.04600000000000        1.00000000000000       0.000000000000000E+000        
  0.000000000000000E+000  0.000000000000000E+000  0.000000000000000E+000        
  0.344000000000000       0.000000000000000E+000   1.00000000000000             
  0.000000000000000E+000  0.000000000000000E+000  0.000000000000000E+000        
   17.9570000000000       0.000000000000000E+000  0.000000000000000E+000        
   1.00000000000000       0.000000000000000E+000  0.000000000000000E+000        
   5.76000000000000       0.000000000000000E+000  0.000000000000000E+000        
  0.000000000000000E+000   1.00000000000000       0.000000000000000E+000        
  0.135000000000000       0.000000000000000E+000  0.000000000000000E+000        
  0.000000000000000E+000  0.000000000000000E+000   1.00000000000000             
    3    3                                                                      
  0.706000000000000        1.00000000000000       0.000000000000000E+000        
  0.000000000000000E+000                                                        
   11.7790000000000       0.000000000000000E+000   1.00000000000000             
  0.000000000000000E+000                                                        
  0.312000000000000       0.000000000000000E+000  0.000000000000000E+000        
   1.00000000000000                                                             
FINISH                                                                          
 
********************************************************************************
 ONE- AND TWO-ELECTRON INTEGRALS OVER SYMMETRY-ADAPTED AOS ARE CALCULATED.

  SPHERICAL HARMONICS ARE USED.
  
  INTEGRALS LESS THAN  0.10E-13 ARE NEGLECTED.

  NUCLEAR REPULSION ENERGY :   47.8168390808 A.U.
  @MOLECU-I, ONE ELECTRON INTEGRALS (CPU/WALL):        0.04/       0.04 SECONDS.
  @TWOEL-I,   13941722 INTEGRALS OF SYMMETRY TYPE  I I I I
  @TWOEL-I,   13064706 INTEGRALS OF SYMMETRY TYPE  I J I J
  @TWOEL-I,    6770189 INTEGRALS OF SYMMETRY TYPE  I I J J
  @TWOEL-I, TOTAL NUMBER OF 2-E INTEGRALS   33776617.
  @MOLECU-I, TWO ELECTRON INTEGRALS (CPU/WALL):       51.21/       8.76 SECONDS.
 @CHECKOUT-I, Total execution time (CPU/WALL):       51.27/       8.83 seconds.

Running with 14 threads/proc

--executable xvmol finished with status     0 in        8.87 seconds (walltime).
 --invoking executable--
/home/asmola/.local/bin/xvmol2ja
 @GETMEM-I,  Allocated    3814 MB of main memory.
 @CHECKOUT-I, Total execution time (CPU/WALL):        0.11/       0.04 seconds.
--executable xvmol2ja finished with status     0 in        0.07 seconds (walltime).
 --invoking executable--
/home/asmola/.local/bin/xvscf
  There are  157 functions in the AO basis.

  There are 2 irreducible representations.

       Irrep        # of functions
         1                104
         2                 53


  Parameters for SCF calculation: 
        SCF reference function:  RHF  
  Maximum number of iterations:  150
     Full symmetry point group: C s 
     Computational point group: C s 
        Initial density matrix: MOREAD                 
     SCF convergence tolerance: 10**(-10)
  DIIS convergence acceleration:  ON
          Latest start for DIIS:   8
                     DIIS order:   6

  Memory information:    1209746 words required.
  Fock matrices are constructed from AO integral file.
 @GETMEM-I,  Allocated       9 MB of main memory.
  Initialization and symmetry analysis required      0.001 seconds.

  @INITGES-I, Occupancies from core Hamiltonian:

          Alpha population by irrep:  10    3
           Beta population by irrep:  10    3


 total no. of electrons in initial guess :  0.000000000000000E+000
  --------------------------------------------------------------------
  Iteration         Total Energy            Largest Density Difference
  --------------------------------------------------------------------
       0            47.816839080823705              0.0000000000D+00
   current occupation vector 
    10  3
    10  3
       1          -366.647356418673553              0.1324902107D+02
   current occupation vector 
    10  3
    10  3
       2          -344.552275451861874              0.1320559077D+02
   current occupation vector 
    10  3
    10  3
       3          -422.602428376944829              0.1065496821D+02
   current occupation vector 
    10  3
    10  3
       4          -341.413341636847633              0.1066646239D+02
   current occupation vector 
    10  3
    10  3
       5          -422.337267858563564              0.1060497222D+02
   current occupation vector 
    10  3
    10  3
       6          -341.317117290638294              0.1060534755D+02
   current occupation vector 
    10  3
    10  3
       7          -422.328849397960539              0.1060328581D+02
   current occupation vector 
    10  3
    10  3
       8          -341.314235982321463              0.1060329631D+02
   current occupation vector 
    10  3
    10  3
       9          -445.148410132479171              0.8444637813D+01
   current occupation vector 
    10  3
    10  3
      10          -460.403620998085103              0.1664249624D+01
   current occupation vector 
    10  3
    10  3
      11          -463.520183049931688              0.3510464014D+00
   current occupation vector 
    10  3
    10  3
      12          -463.571107091601164              0.7429858217D-01
   current occupation vector 
    10  3
    10  3
      13          -467.467312676870620              0.4374776760D+00
   current occupation vector 
    10  3
    10  3
      14          -466.740050170237851              0.7299936373D-01
   current occupation vector 
    10  3
    10  3
      15          -396.792529952197924              0.7429894173D+01
   current occupation vector 
    10  3
    10  3
      16          -485.095793339663032              0.7429935916D+01
   current occupation vector 
    10  3
    10  3
      17          -520.366894217099002              0.2188213186D+01
   current occupation vector 
    10  3
    10  3
      18          -528.775429650500428              0.5760531934D+00
   current occupation vector 
    10  3
    10  3
      19          -533.779341197736130              0.8795485831D+00
   current occupation vector 
    10  3
    10  3
      20          -534.485734484745421              0.3815138108D+00
   current occupation vector 
    10  3
    10  3
      21          -534.632399835919159              0.5664929646D+00
   current occupation vector 
    10  3
    10  3
      22          -534.686902167089670              0.3742861543D+00
   current occupation vector 
    10  3
    10  3
      23          -534.692021864070171              0.6299733991D-01
   current occupation vector 
    10  3
    10  3
      24          -534.694839262316805              0.9088253201D-01
   current occupation vector 
    10  3
    10  3
      25          -534.695314400591883              0.3553597780D-01
   current occupation vector 
    10  3
    10  3
      26          -534.695364184903951              0.1102951450D-01
   current occupation vector 
    10  3
    10  3
      27          -534.695367395148196              0.2469103618D-02
   current occupation vector 
    10  3
    10  3
      28          -534.695367912204915              0.5857439121D-03
   current occupation vector 
    10  3
    10  3
      29          -534.695368028261896              0.3904676510D-03
   current occupation vector 
    10  3
    10  3
      30          -534.695368047435750              0.1717834514D-03
   current occupation vector 
    10  3
    10  3
      31          -534.695368050253592              0.5675159100D-04
   current occupation vector 
    10  3
    10  3
      32          -534.695368050949924              0.3115568735D-04
   current occupation vector 
    10  3
    10  3
      33          -534.695368051104992              0.1448850832D-04
   current occupation vector 
    10  3
    10  3
      34          -534.695368051136597              0.5950290030D-05
   current occupation vector 
    10  3
    10  3
      35          -534.695368051141713              0.2911481461D-05
   current occupation vector 
    10  3
    10  3
      36          -534.695368051141600              0.1184476919D-05
   current occupation vector 
    10  3
    10  3
      37          -534.695368051139781              0.5847949588D-06
   current occupation vector 
    10  3
    10  3
      38          -534.695368051142964              0.9497156195D-07
   current occupation vector 
    10  3
    10  3
      39          -534.695368051140576              0.7886917203D-07
   current occupation vector 
    10  3
    10  3
      40          -534.695368051143873              0.3004205870D-07
   current occupation vector 
    10  3
    10  3
      41          -534.695368051141827              0.1407370737D-07
   current occupation vector 
    10  3
    10  3
      42          -534.695368051138644              0.3741835272D-08
   current occupation vector 
    10  3
    10  3
      43          -534.695368051136597              0.1669581695D-08
   current occupation vector 
    10  3
    10  3
      44          -534.695368051138757              0.5748417298D-09
   current occupation vector 
    10  3
    10  3
      45          -534.695368051135461              0.2934105181D-09
   current occupation vector 
    10  3
    10  3

  SCF has converged.

 Density matrix saved to file den.dat
 total electron number:   26.0000000000001     
     E(SCF)=      -534.695368051139098              0.7318717854D-10

  Eigenvector printing suppressed.

 @PUTMOS-I, Writing converged MOs to NEWMOS. 
 @PUTMOS-I, Symmetry   1 Full Blocks 26 Partial Blocksize   0
 @PUTMOS-I, Symmetry   2 Full Blocks 13 Partial Blocksize   1
 @PUTFOCK-I, Writing converged Fock matrix to NEWFOCK. 
 @PUTFOCK-I, Symmetry   1 Full Blocks 26 Partial Blocksize   0
 @PUTFOCK-I, Symmetry   2 Full Blocks 13 Partial Blocksize   1


 
  ORBITAL EIGENVALUES (ALPHA)  (1H = 27.2113834 eV)

       MO #        E(hartree)               E(eV)           FULLSYM    COMPSYM
       ----   --------------------   --------------------   -------   ---------
    1     1        -104.8886998622       -2854.1666262766     A'        A'  (1)
    2     2         -20.6742142798        -562.5739712614     A'        A'  (1)
    3     3         -10.6079962011        -288.6582517346     A'        A'  (1)
    4     4          -8.0745284212        -219.7190886448     A'        A'  (1)
    5     5          -8.0726079053        -219.6668287479     A'        A'  (1)
    6   105          -8.0723129105        -219.6588015336     A''       A'' (2)
    7     6          -1.3479686618         -36.6800920687     A'        A'  (1)
    8     7          -1.0265453156         -27.9337181602     A'        A'  (1)
    9   106          -0.6030307405         -16.4093006808     A''       A'' (2)
   10     8          -0.5927124852         -16.1285266812     A'        A'  (1)
   11     9          -0.5536911870         -15.0667031749     A'        A'  (1)
   12   107          -0.4360825073         -11.8664083010     A''       A'' (2)
   13    10          -0.3981531824         -10.8342988984     A'        A'  (1)
  +++++++++++++++++++++++++++++++++++++++++++++++++++++++++++++++++++++++++++++
   14    11          -0.0829079094          -2.2560389095     A'        A'  (1)
   15    12           0.0511976372           1.3931585346     A'        A'  (1)
   16    13           0.0767158416           2.0875441798     A'        A'  (1)
   17   108           0.1176620259           3.2017464984     A''       A'' (2)
   18    14           0.1178162633           3.2059435123     A'        A'  (1)
   19    15           0.1435697976           3.9067328073     A'        A'  (1)
   20    16           0.1624718660           4.4210842370     A'        A'  (1)
   21    17           0.1760256386           4.7899011395     A'        A'  (1)
   22   109           0.1887494783           5.1361344213     A''       A'' (2)
   23    18           0.2264956172           6.1632590769     A'        A'  (1)
   24   110           0.2414030165           6.5689100365     A''       A'' (2)
   25    19           0.2696852241           7.3385080311     A'        A'  (1)
   26    20           0.2974691682           8.0945475853     A'        A'  (1)
   27    21           0.3422079587           9.3119519673     A'        A'  (1)
   28   111           0.3634248649           9.8892933358     A''       A'' (2)
   29    22           0.3820754518          10.3968016064     A'        A'  (1)
   30   112           0.4252722750          11.5722469249     A''       A'' (2)
   31    23           0.4530594695          12.3283749288     A'        A'  (1)
   32    24           0.5087107815          13.8427241138     A'        A'  (1)
   33    25           0.5798699860          15.7790645116     A'        A'  (1)
   34   113           0.6189738055          16.8431335363     A''       A'' (2)
   35    26           0.6298188244          17.1382415020     A'        A'  (1)
   36    27           0.6611601528          17.9910824073     A'        A'  (1)
   37   114           0.7171416222          19.5144156335     A''       A'' (2)
   38    28           0.7427570968          20.2114481343     A'        A'  (1)
   39    29           0.7661202964          20.8471931151     A'        A'  (1)
   40   115           0.7800340405          21.2258053406     A''       A'' (2)
   41    30           0.7830356705          21.3074838447     A'        A'  (1)
   42   116           0.8012963841          21.8043831248     A''       A'' (2)
   43    31           0.8168831626          22.2285209299     A'        A'  (1)
   44   117           0.8775559425          23.8795112050     A''       A'' (2)
   45    32           0.9099835070          24.7619100962     A'        A'  (1)
   46   118           0.9319848438          25.3605969085     A''       A'' (2)
   47    33           0.9383944908          25.5350122684     A'        A'  (1)
   48   119           0.9793638663          26.6498456553     A''       A'' (2)
   49    34           0.9838439346          26.7717545107     A'        A'  (1)
   50    35           0.9937834220          27.0422217117     A'        A'  (1)
   51    36           1.0103551691          27.4931618766     A'        A'  (1)
   52    37           1.0318959206          28.0793155236     A'        A'  (1)
   53   120           1.0501711220          28.5766090353     A''       A'' (2)
   54    38           1.0827557099          29.4632807507     A'        A'  (1)
   55    39           1.1283156630          30.7030301027     A'        A'  (1)
   56   121           1.1503932926          31.3037929465     A''       A'' (2)
   57    40           1.1922698751          32.4433126869     A'        A'  (1)
   58   122           1.2320735693          33.5264262709     A''       A'' (2)
   59    41           1.2604182244          34.2977235488     A'        A'  (1)
   60   123           1.3316781869          36.2368057080     A''       A'' (2)
   61    42           1.4288754647          38.8816781005     A'        A'  (1)
   62   124           1.5226194068          41.4325804520     A''       A'' (2)
   63    43           1.5258248375          41.5198046539     A'        A'  (1)
   64    44           1.6191334042          44.0588598381     A'        A'  (1)
   65    45           1.7094147517          46.5155401971     A'        A'  (1)
   66    46           1.7742421760          48.2795840947     A'        A'  (1)
   67   125           2.1293025724          57.9412686715     A''       A'' (2)
   68    47           2.1441667814          58.3457443634     A'        A'  (1)
   69   126           2.2211315108          60.4400611235     A''       A'' (2)
   70    48           2.2459978426          61.1167084093     A'        A'  (1)
   71   127           2.2938107400          62.4177634927     A''       A'' (2)
   72    49           2.3044754385          62.7079646918     A'        A'  (1)
   73    50           2.3166110807          63.0381923048     A'        A'  (1)
   74   128           2.3209452138          63.1561300629     A''       A'' (2)
   75    51           2.3514969522          63.9874851303     A'        A'  (1)
   76    52           2.3745666226          64.6152427752     A'        A'  (1)
   77   129           2.4315657048          66.1662666563     A''       A'' (2)
   78    53           2.4578218012          66.8807313611     A'        A'  (1)
   79   130           2.4770578057          67.4041696540     A''       A'' (2)
   80    54           2.4868655793          67.6710527423     A'        A'  (1)
   81   131           2.5048392593          68.1601414414     A''       A'' (2)
   82    55           2.5584178959          69.6180902625     A'        A'  (1)
   83    56           2.8485324260          77.5125079708     A'        A'  (1)
   84   132           2.9011117368          78.9432637550     A''       A'' (2)
   85    57           2.9302419190          79.7359363133     A'        A'  (1)
   86    58           2.9706390602          80.8351984102     A'        A'  (1)
   87   133           3.0535124791          83.0902987849     A''       A'' (2)
   88    59           3.0568941129          83.1823177181     A'        A'  (1)
   89   134           3.0881648587          84.0332379719     A''       A'' (2)
   90    60           3.1248677013          85.0319730940     A'        A'  (1)
   91    61           3.1964105581          86.9787531993     A'        A'  (1)
   92   135           3.3692644976          91.6823480207     A''       A'' (2)
   93    62           3.3729038379          91.7813795056     A'        A'  (1)
   94    63           3.3862512049          92.1445798244     A'        A'  (1)
   95   136           3.7819352371         102.9116897306     A''       A'' (2)
   96    64           3.7856849882         103.0137256448     A'        A'  (1)
   97    65           3.8084258200         103.6325351390     A'        A'  (1)
   98   137           3.8442780376         104.6081235779     A''       A'' (2)
   99    66           3.9304281747         106.9523879893     A'        A'  (1)
  100   138           4.0076141963         109.0527264141     A''       A'' (2)
  101    67           4.0307095710         109.6811835096     A'        A'  (1)
  102    68           4.0636563370         110.5777105928     A'        A'  (1)
  103   139           4.1838791383         113.8491393320     A''       A'' (2)
  104    69           4.2778537447         116.4063183764     A'        A'  (1)
  105    70           4.5844852593         124.7501860838     A'        A'  (1)
  106    71           5.1227291877         139.3965479801     A'        A'  (1)
  107    72           5.8320763463         158.6988654768     A'        A'  (1)
  108   140           6.5399826229         177.9619745811     A''       A'' (2)
  109    73           6.5729624083         178.8594001661     A'        A'  (1)
  110   141           6.5872754883         179.2488788730     A''       A'' (2)
  111    74           6.6589510805         181.1992708939     A'        A'  (1)
  112   142           6.7651040758         184.0878407467     A''       A'' (2)
  113    75           6.8154681322         185.4583163966     A'        A'  (1)
  114    76           6.9290157837         188.5481050742     A'        A'  (1)
  115   143           7.0470574101         191.7601810287     A''       A'' (2)
  116    77           7.0795018066         192.6430379393     A'        A'  (1)
  117   144           7.1629014787         194.9124583927     A''       A'' (2)
  118    78           7.1785729812         195.3389016569     A'        A'  (1)
  119    79           7.6242064900         207.4652059188     A'        A'  (1)
  120   145          10.3484994769         281.5969868819     A''       A'' (2)
  121    80          10.3551685842         281.7784625151     A'        A'  (1)
  122   146          10.3875362963         282.6592327393     A''       A'' (2)
  123    81          10.4150606007         283.4082071407     A'        A'  (1)
  124    82          10.5886481890         288.1317655592     A'        A'  (1)
  125   147          12.6775968721         344.9749490782     A''       A'' (2)
  126    83          12.7117180262         345.9034328845     A'        A'  (1)
  127    84          13.1746784318         358.5012259792     A'        A'  (1)
  128    85          18.2242113215         495.9060014327     A'        A'  (1)
  129   148          26.0377863067         708.5241860792     A''       A'' (2)
  130    86          26.1689333648         712.0928789584     A'        A'  (1)
  131    87          26.5586841828         722.6985378976     A'        A'  (1)
  132    88          28.6590491065         779.8523731176     A'        A'  (1)
  133   149          36.8967950358        1004.0128359500     A''       A'' (2)
  134    89          36.8978494504        1004.0415280309     A'        A'  (1)
  135    90          36.8988511197        1004.0687848371     A'        A'  (1)
  136   150          36.8991877830        1004.0779459127     A''       A'' (2)
  137   151          36.9057546213        1004.2566386665     A''       A'' (2)
  138    91          36.9059326922        1004.2614842234     A'        A'  (1)
  139    92          36.9114662927        1004.4120611478     A'        A'  (1)
  140   152          43.8536036235        1193.3172216695     A''       A'' (2)
  141    93          43.8618470161        1193.5415357864     A'        A'  (1)
  142    94          43.8790780864        1194.0104170476     A'        A'  (1)
  143   153          43.8918655957        1194.3583828659     A''       A'' (2)
  144    95          44.0397169243        1198.3816220553     A'        A'  (1)
  145   154          46.4829891674        1264.8664398112     A''       A'' (2)
  146    96          46.4867736422        1264.9694206069     A'        A'  (1)
  147   155          46.5080815911        1265.5492393748     A''       A'' (2)
  148    97          46.5232939735        1265.9631893448     A'        A'  (1)
  149    98          46.6114153641        1268.3610942889     A'        A'  (1)
  150   156          55.0158452337        1497.0572577282     A''       A'' (2)
  151    99          55.0550996459        1498.1254245886     A'        A'  (1)
  152   100          55.5970534642        1512.8727377250     A'        A'  (1)
  153   101         103.7425842819        2822.9792358013     A'        A'  (1)
  154   157         138.2010124349        3760.6407356347     A''       A'' (2)
  155   102         138.2946680622        3763.1892348174     A'        A'  (1)
  156   103         138.5703917514        3770.6920578353     A'        A'  (1)
  157   104         149.3096443243        4062.9219770266     A'        A'  (1)


  VSCF finished.

 @CHECKOUT-I, Total execution time (CPU/WALL):       74.59/      14.00 seconds.
--executable xvscf finished with status     0 in       14.03 seconds (walltime).
 --invoking executable--
/home/asmola/.local/bin/xvtran
 @GETMEM-I,  Allocated    3814 MB of main memory.
  Full RHF integral transformation
  Transformation of IIII integrals :
  1 pass through the AO integral file was required.
    13941722 AO integrals were read.
    15933126 MO integrals were written to HF2.
  Transformation of IIJJ integrals :
  1 pass through the AO integral file was required.
     6770189 AO integrals were read.
     7813260 MO integrals were written to HF2.
  Transformation of IJIJ integrals :
  1 pass through the AO integral file was required.
    13064706 AO integrals were read.
    15193828 MO integrals were written to HF2.
  Summary of active molecular orbitals: 
------------------------------------------------------------------------
 
  Index      Eigenvalue    Symmetry    Index      Eigenvalue    Symmetry
------------------------------------------------------------------------
     1      -104.8886999        1        80         7.0795018        1
     2       -20.6742143        1        81         7.1785730        1
     3       -10.6079962        1        82         7.6242065        1
     4        -8.0745284        1        83        10.3551686        1
     5        -8.0726079        1        84        10.4150606        1
     6        -1.3479687        1        85        10.5886482        1
     7        -1.0265453        1        86        12.7117180        1
     8        -0.5927125        1        87        13.1746784        1
     9        -0.5536912        1        88        18.2242113        1
    10        -0.3981532        1        89        26.1689334        1
    11        -8.0723129        2        90        26.5586842        1
    12        -0.6030307        2        91        28.6590491        1
    13        -0.4360825        2        92        36.8978495        1
    14        -0.0829079        1        93        36.8988511        1
    15         0.0511976        1        94        36.9059327        1
    16         0.0767158        1        95        36.9114663        1
    17         0.1178163        1        96        43.8618470        1
    18         0.1435698        1        97        43.8790781        1
    19         0.1624719        1        98        44.0397169        1
    20         0.1760256        1        99        46.4867736        1
    21         0.2264956        1       100        46.5232940        1
    22         0.2696852        1       101        46.6114154        1
    23         0.2974692        1       102        55.0550996        1
    24         0.3422080        1       103        55.5970535        1
    25         0.3820755        1       104       103.7425843        1
    26         0.4530595        1       105       138.2946681        1
    27         0.5087108        1       106       138.5703918        1
    28         0.5798700        1       107       149.3096443        1
    29         0.6298188        1       108         0.1176620        2
    30         0.6611602        1       109         0.1887495        2
    31         0.7427571        1       110         0.2414030        2
    32         0.7661203        1       111         0.3634249        2
    33         0.7830357        1       112         0.4252723        2
    34         0.8168832        1       113         0.6189738        2
    35         0.9099835        1       114         0.7171416        2
    36         0.9383945        1       115         0.7800340        2
    37         0.9838439        1       116         0.8012964        2
    38         0.9937834        1       117         0.8775559        2
    39         1.0103552        1       118         0.9319848        2
    40         1.0318959        1       119         0.9793639        2
    41         1.0827557        1       120         1.0501711        2
    42         1.1283157        1       121         1.1503933        2
    43         1.1922699        1       122         1.2320736        2
    44         1.2604182        1       123         1.3316782        2
    45         1.4288755        1       124         1.5226194        2
    46         1.5258248        1       125         2.1293026        2
    47         1.6191334        1       126         2.2211315        2
    48         1.7094148        1       127         2.2938107        2
    49         1.7742422        1       128         2.3209452        2
    50         2.1441668        1       129         2.4315657        2
    51         2.2459978        1       130         2.4770578        2
    52         2.3044754        1       131         2.5048393        2
    53         2.3166111        1       132         2.9011117        2
    54         2.3514970        1       133         3.0535125        2
    55         2.3745666        1       134         3.0881649        2
    56         2.4578218        1       135         3.3692645        2
    57         2.4868656        1       136         3.7819352        2
    58         2.5584179        1       137         3.8442780        2
    59         2.8485324        1       138         4.0076142        2
    60         2.9302419        1       139         4.1838791        2
    61         2.9706391        1       140         6.5399826        2
    62         3.0568941        1       141         6.5872755        2
    63         3.1248677        1       142         6.7651041        2
    64         3.1964106        1       143         7.0470574        2
    65         3.3729038        1       144         7.1629015        2
    66         3.3862512        1       145        10.3484995        2
    67         3.7856850        1       146        10.3875363        2
    68         3.8084258        1       147        12.6775969        2
    69         3.9304282        1       148        26.0377863        2
    70         4.0307096        1       149        36.8967950        2
    71         4.0636563        1       150        36.8991878        2
    72         4.2778537        1       151        36.9057546        2
    73         4.5844853        1       152        43.8536036        2
    74         5.1227292        1       153        43.8918656        2
    75         5.8320763        1       154        46.4829892        2
    76         6.5729624        1       155        46.5080816        2
    77         6.6589511        1       156        55.0158452        2
    78         6.8154681        1       157       138.2010124        2
    79         6.9290158        1
------------------------------------------------------------------------
  -104.888699862155       -20.6742142798019       -10.6079962011255     
  -8.07452842124795       -8.07260790526020       -1.34796866184629     
  -1.02654531559769      -0.592712485218527      -0.553691187007682     
 -0.398153182407793       -8.07231291054478      -0.603030740466981     
 -0.436082507328670      -8.290790939880341E-002  5.119763718541587E-002
  7.671584164287824E-002  0.117816263333309       0.143569797606871     
  0.162471865984877       0.176025638575230       0.226495617156556     
  0.269685224127787       0.297469168190985       0.342207958720841     
  0.382075451790468       0.453059469544497       0.508710781452783     
  0.579869986016503       0.629818824350943       0.661160152825170     
  0.742757096809127       0.766120296372926       0.783035670457590     
  0.816883162578626       0.909983506984065       0.938394490756885     
  0.983843934618983       0.993783421966981        1.01035516910173     
   1.03189592057247        1.08275570990109        1.12831566302016     
   1.19226987507391        1.26041822441268        1.42887546468827     
   1.52582483747859        1.61913340422291        1.70941475166223     
   1.77424217596784        2.14416678144460        2.24599784255496     
   2.30447543845787        2.31661108067121        2.35149695220027     
   2.37456662255399        2.45782180119126        2.48686557928760     
   2.55841789589201        2.84853242598481        2.93024191902387     
   2.97063906020135        3.05689411285591        3.12486770128584     
   3.19641055806384        3.37290383794356        3.38625120486854     
   3.78568498817416        3.80842582002097        3.93042817474913     
   4.03070957096453        4.06365633703143        4.27785374470982     
   4.58448525934884        5.12272918767097        5.83207634628515     
   6.57296240830397        6.65895108051950        6.81546813223036     
   6.92901578367382        7.07950180656154        7.17857298122132     
   7.62420648995174        10.3551685841557        10.4150606007289     
   10.5886481890206        12.7117180262337        13.1746784317907     
   18.2242113215283        26.1689333647910        26.5586841827973     
   28.6590491065454        36.8978494504216        36.8988511196788     
   36.9059326922487        36.9114662927351        43.8618470160694     
   43.8790780864003        44.0397169243275        46.4867736422008     
   46.5232939735351        46.6114153640885        55.0550996458558     
   55.5970534642119        103.742584281890        138.294668062240     
   138.570391751391        149.309644324318       0.117662025899074     
  0.188749478327872       0.241403016520477       0.363424864895239     
  0.425272275017441       0.618973805508696       0.717141622191049     
  0.780034040480727       0.801296384101148       0.877555942451613     
  0.931984843833175       0.979363866347439        1.05017112196142     
   1.15039329262807        1.23207356928806        1.33167818685584     
   1.52261940684736        2.12930257237333        2.22113151084845     
   2.29381073998226        2.32094521379115        2.43156570482594     
   2.47705780566925        2.50483925934520        2.90111173675110     
   3.05351247908028        3.08816485867947        3.36926449761769     
   3.78193523709521        3.84427803762136        4.00761419627451     
   4.18387913831765        6.53998262290072        6.58727548828059     
   6.76510407577160        7.04705741012295        7.16290147867676     
   10.3484994769467        10.3875362962720        12.6775968721300     
   26.0377863067112        36.8967950357860        36.8991877830326     
   36.9057546212988        43.8536036234579        43.8918655957003     
   46.4829891673637        46.5080815911341        55.0158452336618     
   138.201012434919     
 @CHECKOUT-I, Total execution time (CPU/WALL):       33.19/      18.57 seconds.
--executable xvtran finished with status     0 in       18.62 seconds (walltime).
 --invoking executable--
/home/asmola/.local/bin/xintprc
 @GETMEM-I,  Allocated    3814 MB of main memory.
  Processing integrals for CCSD calculation.
  @GMOIAA-I, Processing MO integrals for spin case AA.
  @GMOIAA-I, Generation of integral list completed.
                      TYPE                NUMBER
                      ----               --------
                      PPPP              27524020
                      PPPH               9932000
                      PPHH                900748
                      PHPH                491140
                      PHHH                 89950
                      HHHH                  2356

                     TOTAL              38940214

  @FORMT2-I, Second-order MP correlation energies:
            ------------------------------------------------
            E(SCF)                  =   -534.695368051139 a.u.
            E2(AA)                  =     -0.113079039356 a.u.
            E2(AB)                  =     -0.680188263792 a.u.
            E2(TOT)                 =     -0.906346342505 a.u.
            Total MP2 energy        =   -535.601714393644 a.u.
            ------------------------------------------------
   Largest T2 amplitudes for spin case AB:
       _       _                 _       _                 _       _
   i   j   a   b             i   j   a   b             i   j   a   b
-----------------------------------------------------------------------------
[ 10  10  14  14]-0.16419 [ 10   9  14  14]-0.08096 [  9  10  14  14]-0.08096
[  9   9  14  14]-0.07021 [  8   8  19  19]-0.04244 [  9   8  14  19]-0.03492
[  8   9  19  14]-0.03492 [ 10  10  15  14] 0.03356 [ 10  10  14  15] 0.03356
[  8   8  19  16] 0.02903 [  8   8  16  19] 0.02903 [ 10  10  23  14]-0.02496
[ 10  10  14  23]-0.02496 [ 10  10  16  14]-0.02433 [ 10  10  14  16]-0.02433
-----------------------------------------------------------------------------
   Norm of T2AB vector (  1799624 symmetry allowed elements):  0.4216830374.
-----------------------------------------------------------------------------
 @CHECKOUT-I, Total execution time (CPU/WALL):        6.80/       7.58 seconds.
--executable xintprc finished with status     0 in        7.71 seconds (walltime).
  calling xvcc 
 --invoking executable--
/home/asmola/.local/bin/xvcc
 @GETMEM-I,  Allocated    3814 MB of main memory.
   CCSD energy will be calculated.
   The total correlation energy is -0.906346342505 a.u.
   The total correlation energy is -0.881754301632 a.u.
  Convergence information after     1 iterations: 
  Largest element of residual vector :  0.47478871E-01.
  Largest element of DIIS residual   :  0.47478871E-01.
   The total correlation energy is -0.918315160228 a.u.
  Convergence information after     2 iterations: 
  Largest element of residual vector : -0.59000421E-01.
  Largest element of DIIS residual   : -0.44969073E-01.
   The total correlation energy is -0.914399694575 a.u.
  Convergence information after     3 iterations: 
  Largest element of residual vector : -0.25562256E-01.
  Largest element of DIIS residual   :  0.21163813E-01.
   The total correlation energy is -0.919658086886 a.u.
  Convergence information after     4 iterations: 
  Largest element of residual vector : -0.10069913E-01.
  Largest element of DIIS residual   :  0.25647124E-02.
   The total correlation energy is -0.921819658315 a.u.
  Convergence information after     5 iterations: 
  Largest element of residual vector :  0.34920423E-02.
  Largest element of DIIS residual   :  0.13443461E-02.
   The total correlation energy is -0.921939933088 a.u.
  Convergence information after     6 iterations: 
  Largest element of residual vector :  0.12439275E-02.
  Largest element of DIIS residual   :  0.11305546E-02.
   The total correlation energy is -0.921924599101 a.u.
  Convergence information after     7 iterations: 
  Largest element of residual vector :  0.62981147E-03.
  Largest element of DIIS residual   :  0.60049286E-03.
   The total correlation energy is -0.921951654646 a.u.
  Convergence information after     8 iterations: 
  Largest element of residual vector :  0.41608252E-03.
  Largest element of DIIS residual   :  0.21418932E-03.
   The total correlation energy is -0.921941193156 a.u.
  Convergence information after     9 iterations: 
  Largest element of residual vector :  0.16508276E-03.
  Largest element of DIIS residual   :  0.88091801E-04.
   The total correlation energy is -0.921951941714 a.u.
  Convergence information after    10 iterations: 
  Largest element of residual vector : -0.64876008E-04.
  Largest element of DIIS residual   : -0.69444771E-04.
   The total correlation energy is -0.921955077797 a.u.
  Convergence information after    11 iterations: 
  Largest element of residual vector :  0.51271227E-04.
  Largest element of DIIS residual   : -0.14501061E-04.
   The total correlation energy is -0.921955230885 a.u.
  Convergence information after    12 iterations: 
  Largest element of residual vector : -0.16980168E-04.
  Largest element of DIIS residual   : -0.73635459E-05.
   The total correlation energy is -0.921956303081 a.u.
  Convergence information after    13 iterations: 
  Largest element of residual vector : -0.77586171E-05.
  Largest element of DIIS residual   : -0.56795083E-05.
   The total correlation energy is -0.921956816066 a.u.
  Convergence information after    14 iterations: 
  Largest element of residual vector : -0.23707680E-05.
  Largest element of DIIS residual   : -0.24183902E-05.
   The total correlation energy is -0.921956542709 a.u.
  Convergence information after    15 iterations: 
  Largest element of residual vector : -0.13143449E-05.
  Largest element of DIIS residual   :  0.62329529E-06.
   The total correlation energy is -0.921956750495 a.u.
  Convergence information after    16 iterations: 
  Largest element of residual vector : -0.69289506E-06.
  Largest element of DIIS residual   : -0.42737248E-06.
   The total correlation energy is -0.921956712113 a.u.
  Convergence information after    17 iterations: 
  Largest element of residual vector :  0.52286771E-06.
  Largest element of DIIS residual   :  0.50589876E-06.
   The total correlation energy is -0.921956708309 a.u.
  Convergence information after    18 iterations: 
  Largest element of residual vector : -0.23455435E-06.
  Largest element of DIIS residual   :  0.12139846E-06.
   The total correlation energy is -0.921956703305 a.u.
  Convergence information after    19 iterations: 
  Largest element of residual vector :  0.16498219E-06.
  Largest element of DIIS residual   : -0.97429191E-07.
   The total correlation energy is -0.921956693541 a.u.
  Convergence information after    20 iterations: 
  Largest element of residual vector :  0.34158643E-07.
  Largest element of DIIS residual   :  0.27065595E-07.
   The total correlation energy is -0.921956690506 a.u.
  Convergence information after    21 iterations: 
  Largest element of residual vector : -0.29126922E-07.
  Largest element of DIIS residual   :  0.18274000E-07.
   The total correlation energy is -0.921956690537 a.u.
  Convergence information after    22 iterations: 
  Largest element of residual vector :  0.71837985E-08.
  Largest element of DIIS residual   :  0.48756028E-08.
   The total correlation energy is -0.921956689053 a.u.
  Convergence information after    23 iterations: 
  Largest element of residual vector : -0.43157086E-08.
  Largest element of DIIS residual   :  0.21869984E-08.
   The total correlation energy is -0.921956688888 a.u.
  Convergence information after    24 iterations: 
  Largest element of residual vector : -0.18838208E-08.
  Largest element of DIIS residual   : -0.15730232E-08.
   The total correlation energy is -0.921956688784 a.u.
  Convergence information after    25 iterations: 
  Largest element of residual vector :  0.19725764E-08.
  Largest element of DIIS residual   :  0.15239511E-08.
   The total correlation energy is -0.921956688795 a.u.
  Convergence information after    26 iterations: 
  Largest element of residual vector :  0.85122038E-09.
  Largest element of DIIS residual   : -0.47654116E-09.
[...]
 term  0.442850049897353     
 final tnorm  0.697680610186149     
  norm contr. I: |<0|L dT/dx|0>|^2   0.000000000000000E+000
  norm contr. II: <0|[nabla(1+L)e-T][nabla e^T]|0>  0.442850049897353     
  total norm contribution  0.442850049897353     
 oo  2.288417003530641E-003
 vv  -1.48001662248568     
 vo -3.480448419316372E-002
  Correlated perturbed 1-el contribution to DBOC  -1.51253268967531       cm**-1
  SUM_I |dc_I/dx|^2 contribution to DBOC  0.762579951926377       cm**-1
 
 
  The total diagonal Born-Oppenheimer correction (DBOC) is:      0.0087860685 a.u.
  The total diagonal Born-Oppenheimer correction (DBOC) is:       1928.319154 cm-1
 
 Total CC energy including DBOC  -535.608538671422     
 First-order density matrix is being calculated  (Symmetry block 2, perturbation   3)
 Calculation of the contributions of <pq||rs> to dI(i,j)/dx required   2.0 seconds.
 Calculation of the contributions of <pq||rs> to dI(a,b)/dx required   8.9 seconds.
 Calculation of the contributions of <pq||rs> to dI(i,a)/dx required   5.7 seconds.
 First-order Z-vector equations are solved for 1 perturbation.
 Convergence reached after  24 iterations.
        U*G(pq,rs) contribution is being calculated
             (Symmetry block 2, perturbation   3)

 CCSD contribution to force constants 

        0.0000000000        0.0000000000        0.0000000000
        0.0000000000        0.0000000000        0.0000000000
        0.0000000000        0.0000000000        0.0000000000
        0.0000000000        0.0000000000        0.0000000000
        0.0000000000        0.0000000000        0.0000000000
        0.0000000000        0.0000000000        0.0000000000
        0.0000000000        0.0000000000        0.0000000000
        0.0000000000        0.0000000000        0.0000000000
        0.0000000000        0.0000000000        0.0000000000
        0.0000000000        0.0000000000        0.0000000000
        0.0000000000        0.0000000000        0.0000000000
        0.0000000000        0.0000000000        0.0000000000
        0.0000000000        0.0000000000        0.0000000000
        0.0000000000        0.0000000000        0.0000000000
        0.0000000000        0.0000000000        0.0000000000
        0.0000000000        0.0000000000        0.0000000000
        0.0000000000        0.0000000000        0.0000000000
        0.0000000000        0.0000000000        0.0000000000
        0.0000000000        0.0000000000        0.0000000000
        0.0000000000        0.0000000000        0.0000000000
        0.0000000000        0.0000000000        0.0000000000
        0.0000000000        0.0000000000        0.0000000000
        0.0000000000        0.0000000000        0.0000000000
        0.0000000000        0.0000000000        0.0000000000
        0.0000000000        0.0000000000        0.0000000000
        0.0000000000        0.0000000000        0.0000000000
        0.0542999335        0.0033698129       -0.0576697464

 CCSD contribution to dipole derivatives 

        0.0000000000        0.0000000000        0.0000000000
        0.0000000000        0.0000000000        0.0000000000
        0.0000000000        0.0000000000        0.0000000000
        0.0000000000        0.0000000000        0.0000000000
        0.0000000000        0.0000000000        0.0000000000
        0.0000000000        0.0000000000        0.0000000000
        0.0000000000        0.0000000000        0.0000000000
        0.0000000000        0.0000000000        0.0000000000
        0.0000000000        0.0000000000        0.0273799026
 @CHECKOUT-I, Total execution time (CPU/WALL):     1094.26/     265.63 seconds.
--executable xsdcc finished with status     0 in      265.77 seconds (walltime).
 --invoking executable--
/home/asmola/.local/bin/xanti
 @GETMEM-I,  Allocated    3814 MB of main memory.
 CCSD MO derivative gammas will be sorted to Mulliken order.
 @CHECKOUT-I, Total execution time (CPU/WALL):        8.06/       9.72 seconds.
--executable xanti finished with status     0 in        9.82 seconds (walltime).
 --invoking executable--
/home/asmola/.local/bin/xbcktrn
 @GETMEM-I,  Allocated    3814 MB of main memory.
 CCSD MO derivative gammas will be transformed to the AO basis.
 @CHECKOUT-I, Total execution time (CPU/WALL):       11.22/       4.70 seconds.
--executable xbcktrn finished with status     0 in        4.76 seconds (walltime).
 --invoking executable--
/home/asmola/.local/bin/xvdint
 @GETMEM-I,  Allocated    3814 MB of main memory.
 One- and two-electron integral derivatives are calculated
 for RHF-CC/MBPT hessians and dipole derivatives.
 Spherical gaussians are used.
  magnet F F
 Evaluation of 2el integral derivatives

                      Two-electron integral gradient
                      ------------------------------

                         O #1 x     0.0000000000
                         O #1 y     0.0000000000
                         H #2 x     0.0000000000
                         H #2 y     0.0000000000
                         CL#3 x     0.0000000000
                         CL#3 y     0.0000000000


 O #1       0.0000000000            0.0000000000           -0.0904269735
 H #2       0.0000000000            0.0000000000           -0.0007501867
 CL#3       0.0000000000            0.0000000000            0.0911771602


 Evaluation of 2e integral derivatives required  113.01 seconds.
  contribution to Hessian
        0.0000000000        0.0000000000        0.0000000000
        0.0000000000        0.0000000000        0.0000000000
       -0.0904269735       -0.0007501867        0.0911771602
 @CHECKOUT-I, Total execution time (CPU/WALL):      113.06/      20.73 seconds.
--executable xvdint finished with status     0 in       20.82 seconds (walltime).
 --invoking executable--
/home/asmola/.local/bin/xanti
 @GETMEM-I,  Allocated    3814 MB of main memory.
 CCSD MO gammas will be sorted to Mulliken order.
 @CHECKOUT-I, Total execution time (CPU/WALL):        9.43/      14.11 seconds.
--executable xanti finished with status     0 in       14.21 seconds (walltime).
 --invoking executable--
/home/asmola/.local/bin/xbcktrn
 @GETMEM-I,  Allocated    3814 MB of main memory.
 CCSD MO gammas will be transformed to the AO basis.
 @CHECKOUT-I, Total execution time (CPU/WALL):       18.63/       4.38 seconds.
--executable xbcktrn finished with status     0 in        4.41 seconds (walltime).
 --invoking executable--
/home/asmola/.local/bin/xvdint
 @GETMEM-I,  Allocated    3814 MB of main memory.
 One- and two-electron integral derivatives are calculated
 for RHF-CC/MBPT hessians and dipole derivatives.
 Spherical gaussians are used.
  magnet F F

                     Kinetic energy integral gradient
                     --------------------------------

                         O #1 x     0.3585436457
                         O #1 y    -0.0641691390
                         H #2 x     0.0156751678
                         H #2 y     0.0357666238
                         CL#3 x    -0.3742188135
                         CL#3 y     0.0284025152


 O #1       0.3585436457           -0.0641691390            0.0000000000
 H #2       0.0156751678            0.0357666238            0.0000000000
 CL#3      -0.3742188135            0.0284025152            0.0000000000



                   Nuclear attraction integral gradient
                   ------------------------------------

                         O #1 x   -26.2564163767
                         O #1 y     4.3637319121
                         H #2 x    -1.4091897562
                         H #2 y    -2.1377014577
                         CL#3 x    27.6656061329
                         CL#3 y    -2.2260304544


 O #1     -26.2564163767            4.3637319121            0.0000000000
 H #2      -1.4091897562           -2.1377014577            0.0000000000
 CL#3      27.6656061329           -2.2260304544            0.0000000000



                      Reorthonormalization gradient
                      -----------------------------

                         O #1 x     0.0000000000
                         O #1 y     0.0000000000
                         H #2 x     0.0000000000
                         H #2 y     0.0000000000
                         CL#3 x     0.0000000000
                         CL#3 y     0.0000000000


 O #1       0.0000000000            0.0000000000            0.0000000000
 H #2       0.0000000000            0.0000000000            0.0000000000
 CL#3       0.0000000000            0.0000000000            0.0000000000



                     Kinetic energy integral Hessian
                     -------------------------------


           Symmetry 1

           O #1 x      O #1 y      H #2 x      H #2 y      CL#3 x      CL#3 y

 O #1 x    0.404207
 O #1 y   -0.033688   -0.202845
 H #2 x   -0.000482   -0.026305   -0.003212
 H #2 y   -0.026305   -0.038916    0.024644    0.039266
 CL#3 x   -0.403725    0.059993    0.003695    0.001662    0.400030
 CL#3 y    0.059993    0.241761    0.001662   -0.000350   -0.061655   -0.241411


           Symmetry 2

           O #1 z      H #2 z      CL#3 z

 O #1 z   -0.240141
 H #2 z    0.013897   -0.013280
 CL#3 z    0.226244   -0.000617   -0.225627




           O #1 x      O #1 y      O #1 z      H #2 x      H #2 y      H #2 z

 O #1 x    0.404207
 O #1 y   -0.033688   -0.202845
 O #1 z    0.000000    0.000000   -0.240141

 H #2 x   -0.000482   -0.026305    0.000000   -0.003212
 H #2 y   -0.026305   -0.038916    0.000000    0.024644    0.039266
 H #2 z    0.000000    0.000000    0.013897    0.000000    0.000000   -0.013280

 CL#3 x   -0.403725    0.059993    0.000000    0.003695    0.001662    0.000000
 CL#3 y    0.059993    0.241761    0.000000    0.001662   -0.000350    0.000000
 CL#3 z    0.000000    0.000000    0.226244    0.000000    0.000000   -0.000617


           CL#3 x      CL#3 y      CL#3 z

 CL#3 x    0.400030
 CL#3 y   -0.061655   -0.241411
 CL#3 z    0.000000    0.000000   -0.225627




                   Nuclear attraction integral Hessian
                   -----------------------------------


           Symmetry 1

           O #1 x      O #1 y      H #2 x      H #2 y      CL#3 x      CL#3 y

 O #1 x  -14.241848
 O #1 y    2.153068   10.066323
 H #2 x   -0.281841    0.607375    0.214094
 H #2 y    0.597194    0.600224   -0.852940   -0.737573
 CL#3 x   14.523689   -2.760443    0.067747    0.255746  -14.591437
 CL#3 y   -2.750262  -10.666547    0.245565    0.137349    2.504697   10.529199


           Symmetry 2

           O #1 z      H #2 z      CL#3 z

 O #1 z   10.616837
 H #2 z   -0.606899    0.732001
 CL#3 z  -10.009937   -0.125102   10.135040




           O #1 x      O #1 y      O #1 z      H #2 x      H #2 y      H #2 z

 O #1 x  -14.241848
 O #1 y    2.153068   10.066323
 O #1 z    0.000000    0.000000   10.616837

 H #2 x   -0.281841    0.607375    0.000000    0.214094
 H #2 y    0.597194    0.600224    0.000000   -0.852940   -0.737573
 H #2 z    0.000000    0.000000   -0.606899    0.000000    0.000000    0.732001

 CL#3 x   14.523689   -2.760443    0.000000    0.067747    0.255746    0.000000
 CL#3 y   -2.750262  -10.666547    0.000000    0.245565    0.137349    0.000000
 CL#3 z    0.000000    0.000000  -10.009937    0.000000    0.000000   -0.125102


           CL#3 x      CL#3 y      CL#3 z

 CL#3 x  -14.591437
 CL#3 y    2.504697   10.529199
 CL#3 z    0.000000    0.000000   10.135040




                Highest order reorthonormalization Hessian
                ------------------------------------------


           Symmetry 1

           O #1 x      O #1 y      H #2 x      H #2 y      CL#3 x      CL#3 y

 O #1 x    0.000000
 O #1 y    0.000000    0.000000
 H #2 x    0.000000    0.000000    0.000000
 H #2 y    0.000000    0.000000    0.000000    0.000000
 CL#3 x    0.000000    0.000000    0.000000    0.000000    0.000000
 CL#3 y    0.000000    0.000000    0.000000    0.000000    0.000000    0.000000


           Symmetry 2

           O #1 z      H #2 z      CL#3 z

 O #1 z    0.000000
 H #2 z    0.000000    0.000000
 CL#3 z    0.000000    0.000000    0.000000




           O #1 x      O #1 y      O #1 z      H #2 x      H #2 y      H #2 z


           CL#3 x      CL#3 y      CL#3 z




                Electronic contributions to dipole moment
                -----------------------------------------

                               au             Debye

                    x      2.36636518      6.01470140
                    y      1.18547165      3.01316889

  Conversion factor used: 1 a.u. =   2.54174691 Debye 



   Electronic contributions to static part of dipole moment derivatives
   --------------------------------------------------------------------


                     Total dipole moment derivatives
                     -------------------------------


           Symmetry 1
                              Ex             Ey

               O #1 x    -8.49568704    -0.06207537
               O #1 y    -0.21929613    -8.56367576
               H #2 x    -0.75074159     0.03160900
               H #2 y     0.24455150    -0.67775094
               CL#3 x   -16.75357136     0.03046636
               CL#3 y    -0.02525537   -16.75857330

           Symmetry 2
                              Ez

               O #1 z    -8.32150733
               H #2 z    -0.86822117
               CL#3 z   -16.81027150



                       Ex          Ey          Ez

      O #1    x   -8.495687   -0.062075    0.000000
      O #1    y   -0.219296   -8.563676    0.000000
      O #1    z    0.000000    0.000000   -8.321507

      H #2    x   -0.750742    0.031609    0.000000
      H #2    y    0.244551   -0.677751    0.000000
      H #2    z    0.000000    0.000000   -0.868221

      CL#3    x  -16.753571    0.030466    0.000000
      CL#3    y   -0.025255  -16.758573    0.000000
      CL#3    z    0.000000    0.000000  -16.810271

 Evaluation of 1e integral derivatives required    1.70 seconds.
 Evaluation of 2el integral derivatives

                      Two-electron integral gradient
                      ------------------------------

                         O #1 x    12.5717438475
                         O #1 y    -2.2311341603
                         H #2 x     0.7157344222
                         H #2 y     1.2315741471
                         CL#3 x   -13.2874782698
                         CL#3 y     0.9995600131


 O #1      12.5717438475           -2.2311341603            0.0000000000
 H #2       0.7157344222            1.2315741471            0.0000000000
 CL#3     -13.2874782698            0.9995600131            0.0000000000


 Evaluation of 2e integral derivatives required  274.27 seconds.

                            Molecular gradient
                            ------------------

                         O #1 x    -0.1733594945
                         O #1 y     0.0997358034
                         H #2 x    -0.0325942310
                         H #2 y    -0.0841378876
                         CL#3 x     0.2059537255
                         CL#3 y    -0.0155979158


 O #1      -0.1733594945            0.0997358034            0.0000000000
 H #2      -0.0325942310           -0.0841378876            0.0000000000
 CL#3       0.2059537255           -0.0155979158            0.0000000000


  Molecular gradient norm 0.301E+00

                            Molecular hessian
                            -----------------


           Symmetry 1

           O #1 x      O #1 y      H #2 x      H #2 y      CL#3 x      CL#3 y

 O #1 x    2.035634
 O #1 y   -0.226931    0.117141
 H #2 x   -0.285716   -0.605904    0.209606
 H #2 y   -0.566116   -1.484939    0.543404    1.359113
 CL#3 x   -1.749918    1.391357   -0.045322   -0.077008    1.795239
 CL#3 y    0.793046    1.367798    0.005947    0.009524   -0.798993   -1.377322


           Symmetry 2

           O #1 z      H #2 z      CL#3 z

 O #1 z    0.214585
 H #2 z   -0.062890    0.023933
 CL#3 z   -0.151695    0.004262    0.147433




           O #1 x      O #1 y      O #1 z      H #2 x      H #2 y      H #2 z

 O #1 x    2.035634
 O #1 y   -0.226931    0.117141
 O #1 z    0.000000    0.000000    0.214585

 H #2 x   -0.285716   -0.605904    0.000000    0.209606
 H #2 y   -0.566116   -1.484939    0.000000    0.543404    1.359113
 H #2 z    0.000000    0.000000   -0.062890    0.000000    0.000000    0.023933

 CL#3 x   -1.749918    1.391357    0.000000   -0.045322   -0.077008    0.000000
 CL#3 y    0.793046    1.367798    0.000000    0.005947    0.009524    0.000000
 CL#3 z    0.000000    0.000000   -0.151695    0.000000    0.000000    0.004262


           CL#3 x      CL#3 y      CL#3 z

 CL#3 x    1.795239
 CL#3 y   -0.798993   -1.377322
 CL#3 z    0.000000    0.000000    0.147433




                           Total dipole moment
                           -------------------

                               au             Debye

                    x      0.04459619      0.11335223
                    y     -0.40558098     -1.03088420

  Conversion factor used: 1 a.u. =   2.54174691 Debye 



                     Total dipole moment derivatives
                     -------------------------------


           Symmetry 1
                              Ex             Ey

               O #1 x     0.38297813     0.28812500
               O #1 y     0.16158954     0.05949444
               H #2 x    -0.03032724    -0.15839720
               H #2 y    -0.24667108    -0.18018113
               CL#3 x    -0.35265061    -0.12972794
               CL#3 y     0.08508132     0.12068653

           Symmetry 2
                              Ez

               O #1 z    -0.17403205
               H #2 z     0.10738138
               CL#3 z     0.06665073



                       Ex          Ey          Ez

      O #1    x    0.382978    0.288125    0.000000
      O #1    y    0.161590    0.059494    0.000000
      O #1    z    0.000000    0.000000   -0.174032

      H #2    x   -0.030327   -0.158397    0.000000
      H #2    y   -0.246671   -0.180181    0.000000
      H #2    z    0.000000    0.000000    0.107381

      CL#3    x   -0.352651   -0.129728    0.000000
      CL#3    y    0.085081    0.120687    0.000000
      CL#3    z    0.000000    0.000000    0.066651

  Molecular gradient does not satisfy rotational invariance condition.
   rotational invariance in yz-plane :        0.0000E+00
   rotational invariance in xz-plane :        0.0000E+00
   rotational invariance in xy-plane :        -.3581E-01
 @CHECKOUT-I, Total execution time (CPU/WALL):      276.09/      39.78 seconds.
--executable xvdint finished with status     0 in       39.87 seconds (walltime).
 --invoking executable--
/home/asmola/.local/bin/xjoda
  @GTFLGS-I, Hessian will be transformed to curvilinear coordinates.
  @GTFLGS-I, Hessian will be transformed to curvilinear coordinates.
  igrd and ihes are                      0                     1
  gradient from JOBARC 
  -0.173359494460562   0.099735803448805   0.000000000000000
  -0.032594230998096  -0.084137887645942   0.000000000000000
   0.205953725458659  -0.015597915802860   0.000000000000000
 
  @PROJFCM-I, Projecting force constant matrix onto totally symmetric subspace.
  Largest difference between matrix elements of symmetrized
  and unsymmetrized FCM :     0.0000000000E+00.
 
  Summary of diagonal Born-Oppenheimer correction at the correlated level
  The total diagonal Born-Oppenheimer correction (DBOC) is:      0.0087860685 a.u.
  The total diagonal Born-Oppenheimer correction (DBOC) is:       1928.319154 cm-1
  The total diagonal Born-Oppenheimer correction (DBOC) is:            23.068 kJ/mole
  hellooooooo 
  readis is  F
 
 @CHECKOUT-I, Total execution time (CPU/WALL):        0.11/       0.14 seconds.
--executable xjoda finished with status     0 in        0.19 seconds (walltime).
  The final electronic energy is      -535.608538671422025 a.u. 
  This computation required                         2663.38 seconds (walltime).
