 --invoking executable--
/home/asmola/.local/bin/xjoda


   *************************************************************************
         <<<     CCCCCC     CCCCCC   |||     CCCCCC     CCCCCC   >>>
       <<<      CCC        CCC       |||    CCC        CCC         >>>
      <<<      CCC        CCC        |||   CCC        CCC            >>>
    <<<        CCC        CCC        |||   CCC        CCC              >>>
      <<<      CCC        CCC        |||   CCC        CCC            >>>
       <<<      CCC        CCC       |||    CCC        CCC         >>>
         <<<     CCCCCC     CCCCCC   |||     CCCCCC     CCCCCC   >>>
   *************************************************************************

     ****************************************************************
     * CFOUR Coupled-Cluster techniques for Computational Chemistry *
     ****************************************************************
 

   Department of Chemistry                Institut fuer Physikalische Chemie
   University of Florida                  Universitaet Mainz
   Gainesville, FL 32611, USA             D-55099 Mainz, Germany

   Department of Chemistry                Fakultaet fuer Chemie und Biowiss.
   Johns Hopkins University               Karlsruher Institut fuer Technologie
   Baltimore, MD 21218, USA               D-76131 Karlsruhe, Germany

   Department of Chemistry                Department of Physical Chemistry
   Southern Methodist University          Eotvos Lorand University
   Dallas, TX 75275, USA                  H-1053 Budapest, Hungary

 
                       Version 2.1
 
                     vincent.theory.phys.ucl.ac.uk                     
                     Thu 30 Jan 20:43:22 GMT 2025                      
                     integer*8 version is running
 
********************************************************************************
*                          Input from ZMAT file                                *
********************************************************************************
Hypochlorous acid DBOC calculation                                              
O                                                                               
H 1 ROH                                                                         
CL 1 ROCL 2 A                                                                   
                                                                                
ROH=1.6500000000000008                                                          
ROCL=1.683                                                                      
A=107.0                                                                         
                                                                                
                                                                                
*CFOUR(CALC=CCSD,BASIS=AUG-PCVTZ,SCF_CONV=10                                    
CC_CONV=10,DBOC=ON,MEMORY=500000000)                                            
                                                                                
%isotopes                                                                       
16                                                                              
1                                                                               
37                                                                              
********************************************************************************
  @GTFLGS-I, Hessian will be transformed to curvilinear coordinates.
    -------------------------------------------------------------------
                    CFOUR Control Parameters 
    -------------------------------------------------------------------
        External           Internal           Value            Units
          Name               Name
    -------------------------------------------------------------------
       ABCDTYPE             IABCDT         STANDARD    [  0]    ***   
       ANHARMONIC           IANHAR         OFF         [  0]    ***   
       ANH_ALGORIT          IANALG         STANDARD    [  0]    ***   
       ANH_DERIVAT          IANDER         SECOND      [  1]    ***   
       ANH_MODE             ANHMOD         VIBRATION   [  0]    ***   
       ANH_STEPSIZ          ICUBST             50000          x 10-6  
       ANH_SYMMETR          IANHSM         ABELIAN     [  0]    ***   
       AO_LADDERS           IAOLAD         SINGLEPASS  [  1]    ***   
       AV_SCF               IAVSCF         OFF         [  0]    ***   
       BASIS                IBASIS         AUG-PCVTZ   [ 51]    ***   
       BOTHVECTORS          BOTHVC         OFF         [  0]    ***   
       BOX_POTENT           IPIAB          OFF         [  0]    ***   
       BREIT                IBREIT         OFF         [  0]    ***   
       BRUCK_CONV           IBRTOL          10D-  4             ***   
       BRUECKNER            IBRKNR         OFF         [  0]    ***   
       BUFFERSIZE           IBUFFS              4096            ***   
       CACHE_RECS           ICHREC             10               ***   
       CALCLEVEL            ICLLVL         CCSD        [ 10]    ***   
       CCORBOPT             ICCORB         OFF         [  0]  x 0.01  
       CC_CONV              ICCCNV          10D- 10             ***   
       CC_EXPORDER          ICCEOR              5               ***   
       CC_EXTRAPOL          ICCEXT         DIIS        [  1]    ***   
       CC_GUESS             ICCGES         MP2         [  0]    ***   
       CC_MAXCYC            ICCCYC            100              cycles 
       CC_PROGRAM           ICCPRO         VCC         [  0]    ***   
       CHARGE               ICHRGE              0               ***   
       CHOLESKY             ICHOLE         OFF         [  0]    ***   
       CIS_CONV             ICISTL              5               ***   
       COMM_SIZE            IPSIZE            ***               ***   
       CONSTANT             ICONST         OLD         [  1]    ***   
       CONTINUUM            ICONTU         NONE        [  0]    ***   
       CONTRACTION          ICNTYP         GENERAL     [  1]    ***   
       COORDINATES          ICOORD         INTERNAL    [  0]    ***   
       CPHF_CONVER          ICPHFT          10D- 16             ***   
       CPHF_MAXCYC          ICPHFC             64              cycles 
       CUBIC                ICUBIC         OFF         [  0]    ***   
       CURVILINEAR          ICURVY         ON          [  1]    ***   
       DBOC                 IDBOC          ON          [  1]    ***   
       DCT                  IDCT           OFF         [  0]    ***   
       DERIV_LEV            IDRLVL         SECOND      [  2]    ***   
       DEVMEM_SIZE          IDVMEM          50000000           MByte  
       DIAG_MRCC            IEOMST          10D-  0             ***   
       DIFF_TYPE            IDIFTY         RELAXED     [  0]    ***   
       DIRECT               IDIRCT         OFF         [  0]    ***   
       DROPMO               IDRPMO      NONE         
       ECP                  IECP           OFF         [  0]    ***   
       EIGENVECTOR          IVEC                1               ***   
       EL_ANHARM            IELANH         OFF         [  0]    ***   
       EOMFOLLOW            IEOMSR         ENERGY      [  0]    ***   
       EOMIP                IEOMIP         OFF         [  0]    ***   
       EOMLEVEL             HBARFM         SAME        [  0]    ***   
       EOM_MRCC             IMRCCE         NEW         [  1]    ***   
       EOM_NONIT            EOMNON         OFF         [  0]    ***   
       EOM_NSING            IEOMSI          10D-  0             ***   
       EOM_NSTATES          IMRCCD         DAVIDSON    [  0]    ***   
       EOM_NTRIP            IEOMTR          10D-  0             ***   
       EOM_ORDER            IEXORD         ENERGY      [  0]    ***   
       EOM_PROPSTA          IEOMST              0               ***   
       ESTATE_CONV          IEXTOL          10D-  5             ***   
       ESTATE_DIAG          IEXDIG         ITERATIVE   [  0]    ***   
       ESTATE_LOCK          IESLOC         ON          [  1]    ***   
       ESTATE_MAXC          IEXMXC             40               ***   
       ESTATE_PROP          IEXPRP         OFF         [  0]    ***   
       EVAL_HESS            IRECAL              0            # of cyc.
       EXCITATION           IEXCIT              0               ***   
       EXCITE               IEXCIT         NONE        [  0]    ***   
       EXTERN_POT           IEXPOT         OFF         [  0]    ***   
       FCGRADNEW            IFCGNW         OFF         [  0]    ***   
       FC_FIELD             IFINFC              0             x 10-6  
       FD_CALTYPE           IFDCAL         GRADONLY    [  0]    ***   
       FD_PROJECT           IFDPRJ         OFF         [  1]    ***   
       FD_STEPSIZE          IDISFD              0            10-4 bohr
       FD_USEGROUP          IFDGRP         FULL        [  0]    ***   
       FILE_RECSIZ          IFLREC              4096           words  
       FINITE_PERT          IFIPER              0             x 10-6  
       FIXGEOM              IFIXGM         OFF         [  0]    ***   
       FOCK                 IFOCK          AO          [  1]    ***   
       FREQ_ALGORI          IVIALG         STANDARD    [  0]    ***   
       FROZEN_CORE          IFROCO         OFF         [  0]    ***   
       GAMMA_ABCD           IGABCD         STORE       [  0]    ***   
       GAMMA_ABCI           IGABCI         STORE       [  0]    ***   
       GENBAS_1             IGNBS1              0               ***   
       GENBAS_2             IGNBS2              0               ***   
       GENBAS_3             IGNBS3              0               ***   
       GENBAS_4             IGNBS4              0               ***   
       GEO_CONV             ICONTL              5              H/bohr 
       GEO_MAXCYC           IOPTCY             50               ***   
       GEO_MAXSTEP          IMXSTP            300            millibohr
       GEO_METHOD           INR            SINGLE_POINT[  5]    ***   
       GIAO                 IGIAO          OFF         [  1]    ***   
       GIMIC                IGIMIC         OFF         [  0]    ***   
       GRID                 IGRID          OFF         [  0]    ***   
       GRID_ALGO            IGALGO         SERIAL      [  0]    ***   
       GUESS                IGUESS         MOREAD      [  0]    ***   
       HBAR                 IHBAR          OFF         [  0]    ***   
       HESS_TYPE            IHESTP         SCF         [  0]    ***   
       HF2_FILE             IHF2Fl         USE         [  1]    ***   
       HFSTABILITY          ISTABL         OFF         [  0]    ***   
       INCORE               INCORE         OFF         [  0]    ***   
       INPUT_MRCC           IMRCC          ON          [  1]    ***   
       INTEGRALS            INTTYP         VMOL        [  1]    ***   
       JODA_PRINT           IJPRNT              0               ***   
       KEYWORD_OUT          IDMPKW         NO          [  0]    ***   
       LINDEP_TOL           ILINDP              8               ***   
       LINEQ_CONV           IZTACN          10D-  7           cycles  
       LINEQ_EXPOR          ILMAXD              5               ***   
       LINEQ_MAXCY          ILMAXC            100               ***   
       LINEQ_TYPE           ILTYPE         DIIS        [  1]    ***   
       LOCK_ORBOCC          ILOCOC         OFF         [  0]    ***   
       MEMORY_SIZE          IMEMSZ         500000000           words  
       MEM_UNIT             IMEMU          INTEGERWORDS[  0]    ***   
       MRCC                 IMRCCC         OFF         [  0]    ***   
       MULTIPLICTY          IMULTP              1               ***   
       NACOUPLING           IVCOUP         OFF         [  0]    ***   
       NEGEVAL              IDIE           ABORT       [  0]    ***   
       NEWNORM              INEWNO         OFF         [  0]    ***   
       NON-HF               INONHF         OFF         [  0]    ***   
       NTOP_TAMP            ITOPT2             15               ***   
       NUC_MODEL            INUCMO         POINT       [  0]    ***   
       OCCUPATION           IOCCU   ESTIMATED BY SCF 
       OPEN-SHELL           IOPEN          SPIN-ORBITAL[  0]    ***   
       OPTVIB               IOPTVB         OFF         [  0]    ***   
       ORBITALS             IORBTP         STANDARD    [  0]    ***   
       PARALLEL             IPARAL         ON          [  1]    ***   
       PARA_INT             IPINTS         ON          [  1]    ***   
       PARA_PRINT           IPPRIN              0               ***   
       PERT_ORB             IPTORB         STANDARD    [  0]    ***   
       POINTS               IGRDFD              0               ***   
       PRINT                IPRNT               0               ***   
       PROPS                IPROPS         OFF         [  0]    ***   
       PROP_INTEGR          IINTYP         INTERNAL    [  0]    ***   
       PSI                  IPSI           OFF         [  0]    ***   
       QC_ALG               IQCALG         FLM         [  0]    ***   
       QC_LINALG            IQCLIN         TRIDIAG     [  2]    ***   
       QC_MAXCYC            IQCMAX          10D-100           cycles  
       QC_MAXSCFCY          IQCMSC          10D- 15           cycles  
       QC_RTRUST            IQCRTR          10D-  0           x 10-3  
       QC_SKIPSCF           IQCSKI         OFF         [  0]    ***   
       QC_START             IQCSTA          10D-  1             ***   
       QRHFGUESS            IQGUES         OFF         [  0]    ***   
       QUARTIC              IQUART         OFF         [  0]    ***   
       RAMAN_INT            IRAMIN         OFF         [  0]    ***   
       RAMAN_ORB            IRAMRE         UNRELAXED   [  0]    ***   
       RDO                  IRDOFM         ON          [  1]    ***   
       REDUCE_REPR          REDREP         Ir          [  0]    ***   
       REFERENCE            IREFNC         RHF         [  0]    ***   
       RELATIVIST           IRELAT         OFF         [  0]    ***   
       RELAX_DENS           IRDENS         ON          [  1]    ***   
       RESET_FLAGS          IRESET         OFF         [  0]    ***   
       RESTART_CC           ICCRES         OFF         [  0]    ***   
       ROT_EVEC             ROTVEC              0               ***   
       SAVE_INTS            ISVINT         OFF         [  0]    ***   
       SCALE_ON             ISTCRT              0               ***   
       SCF_CONV             ISCFCV          10D- 10             ***   
       SCF_DAMPING          IDAMP               0             x 10-3  
       SCF_EXPORDE          IRPPOR              6               ***   
       SCF_EXPSTAR          IRPPLS              8               ***   
       SCF_EXTRAPO          IRPP           ON          [  1]    ***   
       SCF_MAXCYC           ISCFCY            150              cycles 
       SCF_NOSTOP           ISCFST         OFF         [  0]    ***   
       SCF_PRINT            ISCFPR              0               ***   
       SCF_PROG             ISCFPR         SCF         [  0]    ***   
       SD_FIELD             IFINSD              0             x 10-6  
       SOPERT               IPERSO         OFF         [  0]    ***   
       SPHERICAL            IDFGHI         ON          [  1]    ***   
       SPINORBIT            ISOCAL         OFF         [  0]    ***   
       SPINROTATIO          ISRCON         OFF         [  0]    ***   
       SPIN_FLIP            ISPFLP         OFF         [  0]    ***   
       SPIN_ORBIT           ISPORB         OFF         [  0]    ***   
       SPIN_SCAL            ISCSMP         OFF         [  0]    ***   
       STEEPSCALE           ISTPSC              1000          x 10-3  
       SUBGROUP             ISUBGP         DEFAULT     [  0]    ***   
       SUBGRPAXIS           ISBXYZ         X           [  0]    ***   
       SYMMETRY             ISYM           ON          [  0]    ***   
       SYM_CHECK            ISYMCK         OVERRIDE    [  1]    ***   
       T3_EXTRAPOL          IT3EXT         OFF         [  0]    ***   
       T4_EXTRAPOL          IT4EXP         OFF         [  0]    ***   
       TAMP_SUM             IEVERY              5               ***   
       TESTSUITE            ITESTS         OFF         [  0]    ***   
       THERMOCH             ITHERM         OFF         [  0]    ***   
       TOL_CHOLESK          ITOLCH          10D-  4             ***   
       TRANGRAD             IRESRM         OFF         [  0]    ***   
       TRANS_INV            ITRAIN         IGNORE      [  1]    ***   
       TREAT_PERT           ITREAT         SIMULTANEOUS[  0]    ***   
       TRIP_ALGORI          ITRALG         NORMAL      [  0]    ***   
       UIJ_THRESHO          IUIJTH              1               ***   
       UNITS                IUNITS         ANGSTROM    [  0]    ***   
       UNOS                 IUNOS          OFF         [  0]    ***   
       UPDATE_HESS          IHUPDT         ON          [  1]    ***   
       VIBPHASE             ISETPH         STANDARD    [  0]    ***   
       VIBRATION            IVIB           ANALYTIC    [  1]    ***   
       VIB_ALGORIT          IGEALG         STANDARD    [  0]    ***   
       VNATORB              IVNORB         OFF         [  0]    ***   
       VTRAN                IVTRAN         FULL/PARTIAL[  0]    ***   
       XFIELD               IXEFLD              0             x 10-6  
       XFORM_TOL            IXFTOL          10D- 11             ***   
       YFIELD               IYEFLD              0             x 10-6  
       ZFIELD               IZEFLD              0             x 10-6  
       ZSCALE_EXP           IZEXPS         OFF         [  0]    ***   
    -------------------------------------------------------------------
   3 entries found in Z-matrix 
   Job Title : Hypochlorous acid DBOC calculation                                              
   There are  3 unique internal coordinates.
   Of these,  0 will be optimized.
   User supplied Z-matrix: 
--------------------------------------------------------------------------------
       SYMBOL    BOND      LENGTH    ANGLE     ANGLE     DIHED     ANGLE
                  TO      (ANGST)    WRT      (DEG)      WRT      (DEG)
--------------------------------------------------------------------------------
        O    
        H          1         ROH  
        CL         1         ROCL       2        A    
                  *Initial values for internal coordinates* 
                      Name             Value
                        ROH             1.6500000000
                        ROCL            1.6830000000
                        A             107.0000000000
--------------------------------------------------------------------------------
  read isotopes from ZMAT file 
   Rotational constants (in cm-1): 
          0.4580777388             0.4879644468             7.4790990844
   Rotational constants (in MHz): 
      13732.8270513023         14628.8081420173        224217.7812264992
********************************************************************************
   The full molecular point group is C s .
   The largest Abelian subgroup of the full molecular point group is C s .
   The computational point group is C s .
********************************************************************************
--------------------------------------------------------------------------------
   Analysis of internal coordinates specified by Z-matrix 
--------------------------------------------------------------------------------
   *The nuclear repulsion energy is   48.685056794888148 a.u.
   *There are   3 degrees of freedom within the tot. symm. molecular subspace.
   *Z-matrix requests optimization of   0 coordinates.
   *The optimization is constrained.
   *The following   3 parameters can have non-zero 
    derivatives within the totally symmetric subspace:
             A    [ 3]  ROH  [ 1]  ROCL [ 2]
   *The following   0 parameters are to be optimized:

   *The following coordinates must be varied in an  unconstrained optimization.
             A    [ 3]  ROH  [ 1]  ROCL [ 2]
--------------------------------------------------------------------------------


 ----------------------------------------------------------------
         Coordinates used in calculation (QCOMP) 
 ----------------------------------------------------------------
 Z-matrix   Atomic            Coordinates (in bohr)
  Symbol    Number           X              Y              Z
 ----------------------------------------------------------------
     O         8        -2.14994210     0.22915052     0.00000000
     H         1        -3.29818326    -2.66977520     0.00000000
     CL       17         1.02018697    -0.02636421     0.00000000
 ----------------------------------------------------------------
 
   Interatomic distance matrix (Angstroms) 
 
                 O             H             CL   
                [ 1]        [ 2]        [ 3]
  O    [ 1]     0.00000
  H    [ 2]     1.65000     0.00000
  CL   [ 3]     1.68300     2.67933     0.00000
 rotcon2
   Rotational constants (in cm-1): 
          7.4790990844             0.4879644468             0.4580777388
   Rotational constants (in MHz): 
     224217.7812264996         14628.8081420173         13732.8270513023
  ECPDATA file not present.   Using default ECPDATA. 
  @GTFLGS-I, Hessian will be transformed to curvilinear coordinates.
  There are  157 basis functions.
 @CHECKOUT-I, Total execution time (CPU/WALL):        0.23/       0.29 seconds.
--executable xjoda finished with status     0 in        0.33 seconds (walltime).
 --invoking executable--
/home/asmola/.local/bin/xvmol
 SERIAL VERSION OF MOLECULE STARTED
********************************************************************************
                    INPUT FROM MOL FILE
********************************************************************************
INTGRL        1    0    1    0    0    0    0    0    0                         
         *** CFOUR Program System (Release V0.1) ***                            
Hypochlorous acid DBOC calculation                                              
    3    1 Z          0.10E-08              0    0                              
   9999.00      3.00                                                            
          8.00000000    1    4    1    1    1    1                              
O #1  -2.149942101670101   0.229150515722478   0.000000000000000                
   13    7                                                                      
   15330.0000000000       5.080000000000000E-004 -1.150000000000000E-004        
  0.000000000000000E+000  0.000000000000000E+000  0.000000000000000E+000        
  0.000000000000000E+000  0.000000000000000E+000                                
   2299.00000000000       3.929000000000000E-003 -8.950000000000000E-004        
  0.000000000000000E+000  0.000000000000000E+000  0.000000000000000E+000        
  0.000000000000000E+000  0.000000000000000E+000                                
   522.400000000000       2.024300000000000E-002 -4.636000000000000E-003        
  0.000000000000000E+000  0.000000000000000E+000  0.000000000000000E+000        
  0.000000000000000E+000  0.000000000000000E+000                                
   147.300000000000       7.918100000000000E-002 -1.872400000000000E-002        
  0.000000000000000E+000  0.000000000000000E+000  0.000000000000000E+000        
  0.000000000000000E+000  0.000000000000000E+000                                
   47.5500000000000       0.230687000000000      -5.846300000000000E-002        
  0.000000000000000E+000  0.000000000000000E+000  0.000000000000000E+000        
  0.000000000000000E+000  0.000000000000000E+000                                
   16.7600000000000       0.433118000000000      -0.136463000000000             
  0.000000000000000E+000  0.000000000000000E+000  0.000000000000000E+000        
  0.000000000000000E+000  0.000000000000000E+000                                
   6.20700000000000       0.350260000000000      -0.175740000000000             
  0.000000000000000E+000  0.000000000000000E+000  0.000000000000000E+000        
  0.000000000000000E+000  0.000000000000000E+000                                
   1.75200000000000       4.272800000000000E-002  0.160934000000000             
   1.00000000000000       0.000000000000000E+000  0.000000000000000E+000        
  0.000000000000000E+000  0.000000000000000E+000                                
  0.688200000000000      -8.154000000000000E-003  0.603418000000000             
  0.000000000000000E+000  0.000000000000000E+000  0.000000000000000E+000        
  0.000000000000000E+000  0.000000000000000E+000                                
  0.238400000000000       2.381000000000000E-003  0.378765000000000             
  0.000000000000000E+000   1.00000000000000       0.000000000000000E+000        
  0.000000000000000E+000  0.000000000000000E+000                                
   7.84500000000000       0.000000000000000E+000  0.000000000000000E+000        
  0.000000000000000E+000  0.000000000000000E+000   1.00000000000000             
  0.000000000000000E+000  0.000000000000000E+000                                
   21.0320000000000       0.000000000000000E+000  0.000000000000000E+000        
  0.000000000000000E+000  0.000000000000000E+000  0.000000000000000E+000        
   1.00000000000000       0.000000000000000E+000                                
  7.376000000000001E-002  0.000000000000000E+000  0.000000000000000E+000        
  0.000000000000000E+000  0.000000000000000E+000  0.000000000000000E+000        
  0.000000000000000E+000   1.00000000000000                                     
    8    6                                                                      
   34.4600000000000       1.592800000000000E-002  0.000000000000000E+000        
  0.000000000000000E+000  0.000000000000000E+000  0.000000000000000E+000        
  0.000000000000000E+000                                                        
   7.74900000000000       9.974000000000000E-002  0.000000000000000E+000        
  0.000000000000000E+000  0.000000000000000E+000  0.000000000000000E+000        
  0.000000000000000E+000                                                        
   2.28000000000000       0.310492000000000       0.000000000000000E+000        
  0.000000000000000E+000  0.000000000000000E+000  0.000000000000000E+000        
  0.000000000000000E+000                                                        
  0.715600000000000       0.491026000000000        1.00000000000000             
  0.000000000000000E+000  0.000000000000000E+000  0.000000000000000E+000        
  0.000000000000000E+000                                                        
  0.214000000000000       0.336337000000000       0.000000000000000E+000        
   1.00000000000000       0.000000000000000E+000  0.000000000000000E+000        
  0.000000000000000E+000                                                        
   15.1590000000000       0.000000000000000E+000  0.000000000000000E+000        
  0.000000000000000E+000   1.00000000000000       0.000000000000000E+000        
  0.000000000000000E+000                                                        
   57.4370000000000       0.000000000000000E+000  0.000000000000000E+000        
  0.000000000000000E+000  0.000000000000000E+000   1.00000000000000             
  0.000000000000000E+000                                                        
  5.974000000000000E-002  0.000000000000000E+000  0.000000000000000E+000        
  0.000000000000000E+000  0.000000000000000E+000  0.000000000000000E+000        
   1.00000000000000                                                             
    4    4                                                                      
   2.31400000000000        1.00000000000000       0.000000000000000E+000        
  0.000000000000000E+000  0.000000000000000E+000                                
  0.645000000000000       0.000000000000000E+000   1.00000000000000             
  0.000000000000000E+000  0.000000000000000E+000                                
   15.8580000000000       0.000000000000000E+000  0.000000000000000E+000        
   1.00000000000000       0.000000000000000E+000                                
  0.214000000000000       0.000000000000000E+000  0.000000000000000E+000        
  0.000000000000000E+000   1.00000000000000                                     
    2    2                                                                      
   1.42800000000000        1.00000000000000       0.000000000000000E+000        
  0.500000000000000       0.000000000000000E+000   1.00000000000000             
          1.00000000    1    3    1    1    1                                   
H #2  -3.298183261262228  -2.669775199702766   0.000000000000000                
    6    4                                                                      
   33.8700000000000       6.068000000000000E-003  0.000000000000000E+000        
  0.000000000000000E+000  0.000000000000000E+000                                
   5.09500000000000       4.530800000000000E-002  0.000000000000000E+000        
  0.000000000000000E+000  0.000000000000000E+000                                
   1.15900000000000       0.202822000000000       0.000000000000000E+000        
  0.000000000000000E+000  0.000000000000000E+000                                
  0.325800000000000       0.503903000000000        1.00000000000000             
  0.000000000000000E+000  0.000000000000000E+000                                
  0.102700000000000       0.383421000000000       0.000000000000000E+000        
   1.00000000000000       0.000000000000000E+000                                
  2.526000000000000E-002  0.000000000000000E+000  0.000000000000000E+000        
  0.000000000000000E+000   1.00000000000000                                     
    3    3                                                                      
   1.40700000000000        1.00000000000000       0.000000000000000E+000        
  0.000000000000000E+000                                                        
  0.388000000000000       0.000000000000000E+000   1.00000000000000             
  0.000000000000000E+000                                                        
  0.102000000000000       0.000000000000000E+000  0.000000000000000E+000        
   1.00000000000000                                                             
    2    2                                                                      
   1.05700000000000        1.00000000000000       0.000000000000000E+000        
  0.247000000000000       0.000000000000000E+000   1.00000000000000             
         17.00000000    1    4    1    1    1    1                              
CL#3   1.020186965919515  -0.026364205477067   0.000000000000000                
   18    8                                                                      
   456100.000000000       4.930000000000000E-005 -1.380000000000000E-005        
  4.200000000000000E-006  0.000000000000000E+000  0.000000000000000E+000        
  0.000000000000000E+000  0.000000000000000E+000  0.000000000000000E+000        
   68330.0000000000       3.830000000000000E-004 -1.073000000000000E-004        
  3.240000000000000E-005  0.000000000000000E+000  0.000000000000000E+000        
  0.000000000000000E+000  0.000000000000000E+000  0.000000000000000E+000        
   15550.0000000000       2.008500000000000E-003 -5.651000000000000E-004        
  1.711000000000000E-004  0.000000000000000E+000  0.000000000000000E+000        
  0.000000000000000E+000  0.000000000000000E+000  0.000000000000000E+000        
   4405.00000000000       8.385600000000000E-003 -2.361400000000000E-003        
  7.142000000000000E-004  0.000000000000000E+000  0.000000000000000E+000        
  0.000000000000000E+000  0.000000000000000E+000  0.000000000000000E+000        
   1439.00000000000       2.947030000000000E-002 -8.458900000000000E-003        
  2.567000000000000E-003  0.000000000000000E+000  0.000000000000000E+000        
  0.000000000000000E+000  0.000000000000000E+000  0.000000000000000E+000        
   520.400000000000       8.783249999999999E-002 -2.596380000000000E-002        
  7.885500000000000E-003  0.000000000000000E+000  0.000000000000000E+000        
  0.000000000000000E+000  0.000000000000000E+000  0.000000000000000E+000        
   203.100000000000       0.211473000000000      -6.863619999999999E-002        
  2.108670000000000E-002  0.000000000000000E+000  0.000000000000000E+000        
  0.000000000000000E+000  0.000000000000000E+000  0.000000000000000E+000        
   83.9600000000000       0.365364000000000      -0.141874000000000             
  4.422640000000000E-002  0.000000000000000E+000  0.000000000000000E+000        
  0.000000000000000E+000  0.000000000000000E+000  0.000000000000000E+000        
   36.2000000000000       0.340884000000000      -0.199319000000000             
  6.516700000000000E-002  0.000000000000000E+000  0.000000000000000E+000        
  0.000000000000000E+000  0.000000000000000E+000  0.000000000000000E+000        
   15.8300000000000       0.102133000000000      -1.956620000000000E-002        
  6.030100000000000E-003  0.000000000000000E+000  0.000000000000000E+000        
  0.000000000000000E+000  0.000000000000000E+000  0.000000000000000E+000        
   6.33400000000000       3.116800000000000E-003  0.499741000000000             
 -0.206495000000000       0.000000000000000E+000  0.000000000000000E+000        
  0.000000000000000E+000  0.000000000000000E+000  0.000000000000000E+000        
   2.69400000000000       1.057500000000000E-003  0.563736000000000             
 -0.405871000000000       0.000000000000000E+000  0.000000000000000E+000        
  0.000000000000000E+000  0.000000000000000E+000  0.000000000000000E+000        
  0.976800000000000      -3.780000000000000E-004  7.903250000000001E-002        
  7.595580000000000E-002   1.00000000000000       0.000000000000000E+000        
  0.000000000000000E+000  0.000000000000000E+000  0.000000000000000E+000        
  0.431300000000000       1.561000000000000E-004 -8.350900000000000E-003        
  0.725661000000000       0.000000000000000E+000  0.000000000000000E+000        
  0.000000000000000E+000  0.000000000000000E+000  0.000000000000000E+000        
  0.162500000000000      -5.140000000000000E-005  2.324600000000000E-003        
  0.394423000000000       0.000000000000000E+000   1.00000000000000             
  0.000000000000000E+000  0.000000000000000E+000  0.000000000000000E+000        
   15.0640000000000       0.000000000000000E+000  0.000000000000000E+000        
  0.000000000000000E+000  0.000000000000000E+000  0.000000000000000E+000        
   1.00000000000000       0.000000000000000E+000  0.000000000000000E+000        
   2.87400000000000       0.000000000000000E+000  0.000000000000000E+000        
  0.000000000000000E+000  0.000000000000000E+000  0.000000000000000E+000        
  0.000000000000000E+000   1.00000000000000       0.000000000000000E+000        
  5.910000000000000E-002  0.000000000000000E+000  0.000000000000000E+000        
  0.000000000000000E+000  0.000000000000000E+000  0.000000000000000E+000        
  0.000000000000000E+000  0.000000000000000E+000   1.00000000000000             
   12    7                                                                      
   663.300000000000       2.404500000000000E-003 -6.521000000000000E-004        
  0.000000000000000E+000  0.000000000000000E+000  0.000000000000000E+000        
  0.000000000000000E+000  0.000000000000000E+000                                
   156.800000000000       1.921480000000000E-002 -5.194500000000000E-003        
  0.000000000000000E+000  0.000000000000000E+000  0.000000000000000E+000        
  0.000000000000000E+000  0.000000000000000E+000                                
   49.9800000000000       8.850970000000000E-002 -2.469380000000000E-002        
  0.000000000000000E+000  0.000000000000000E+000  0.000000000000000E+000        
  0.000000000000000E+000  0.000000000000000E+000                                
   18.4200000000000       0.256020000000000      -7.281670000000000E-002        
  0.000000000000000E+000  0.000000000000000E+000  0.000000000000000E+000        
  0.000000000000000E+000  0.000000000000000E+000                                
   7.24000000000000       0.436927000000000      -0.134030000000000             
  0.000000000000000E+000  0.000000000000000E+000  0.000000000000000E+000        
  0.000000000000000E+000  0.000000000000000E+000                                
   2.92200000000000       0.350334000000000      -9.477420000000000E-002        
  0.000000000000000E+000  0.000000000000000E+000  0.000000000000000E+000        
  0.000000000000000E+000  0.000000000000000E+000                                
   1.02200000000000       5.854950000000000E-002  0.262289000000000             
   1.00000000000000       0.000000000000000E+000  0.000000000000000E+000        
  0.000000000000000E+000  0.000000000000000E+000                                
  0.381800000000000      -4.584200000000000E-003  0.564667000000000             
  0.000000000000000E+000  0.000000000000000E+000  0.000000000000000E+000        
  0.000000000000000E+000  0.000000000000000E+000                                
  0.130100000000000       2.269700000000000E-003  0.341250000000000             
  0.000000000000000E+000   1.00000000000000       0.000000000000000E+000        
  0.000000000000000E+000  0.000000000000000E+000                                
   9.48000000000000       0.000000000000000E+000  0.000000000000000E+000        
  0.000000000000000E+000  0.000000000000000E+000   1.00000000000000             
  0.000000000000000E+000  0.000000000000000E+000                                
   3.66800000000000       0.000000000000000E+000  0.000000000000000E+000        
  0.000000000000000E+000  0.000000000000000E+000  0.000000000000000E+000        
   1.00000000000000       0.000000000000000E+000                                
  4.190000000000000E-002  0.000000000000000E+000  0.000000000000000E+000        
  0.000000000000000E+000  0.000000000000000E+000  0.000000000000000E+000        
  0.000000000000000E+000   1.00000000000000                                     
    5    5                                                                      
   1.04600000000000        1.00000000000000       0.000000000000000E+000        
  0.000000000000000E+000  0.000000000000000E+000  0.000000000000000E+000        
  0.344000000000000       0.000000000000000E+000   1.00000000000000             
  0.000000000000000E+000  0.000000000000000E+000  0.000000000000000E+000        
   17.9570000000000       0.000000000000000E+000  0.000000000000000E+000        
   1.00000000000000       0.000000000000000E+000  0.000000000000000E+000        
   5.76000000000000       0.000000000000000E+000  0.000000000000000E+000        
  0.000000000000000E+000   1.00000000000000       0.000000000000000E+000        
  0.135000000000000       0.000000000000000E+000  0.000000000000000E+000        
  0.000000000000000E+000  0.000000000000000E+000   1.00000000000000             
    3    3                                                                      
  0.706000000000000        1.00000000000000       0.000000000000000E+000        
  0.000000000000000E+000                                                        
   11.7790000000000       0.000000000000000E+000   1.00000000000000             
  0.000000000000000E+000                                                        
  0.312000000000000       0.000000000000000E+000  0.000000000000000E+000        
   1.00000000000000                                                             
FINISH                                                                          
 
********************************************************************************
 ONE- AND TWO-ELECTRON INTEGRALS OVER SYMMETRY-ADAPTED AOS ARE CALCULATED.

  SPHERICAL HARMONICS ARE USED.
  
  INTEGRALS LESS THAN  0.10E-13 ARE NEGLECTED.

  NUCLEAR REPULSION ENERGY :   48.6850567949 A.U.
  @MOLECU-I, ONE ELECTRON INTEGRALS (CPU/WALL):        0.05/       0.05 SECONDS.
  @TWOEL-I,   14121903 INTEGRALS OF SYMMETRY TYPE  I I I I
  @TWOEL-I,   13289242 INTEGRALS OF SYMMETRY TYPE  I J I J
  @TWOEL-I,    6877138 INTEGRALS OF SYMMETRY TYPE  I I J J
  @TWOEL-I, TOTAL NUMBER OF 2-E INTEGRALS   34288283.
  @MOLECU-I, TWO ELECTRON INTEGRALS (CPU/WALL):       62.20/      10.27 SECONDS.
 @CHECKOUT-I, Total execution time (CPU/WALL):       62.26/      10.34 seconds.

Running with 14 threads/proc

--executable xvmol finished with status     0 in       10.38 seconds (walltime).
 --invoking executable--
/home/asmola/.local/bin/xvmol2ja
 @GETMEM-I,  Allocated    3814 MB of main memory.
 @CHECKOUT-I, Total execution time (CPU/WALL):        0.12/       0.03 seconds.
--executable xvmol2ja finished with status     0 in        0.08 seconds (walltime).
 --invoking executable--
/home/asmola/.local/bin/xvscf
  There are  157 functions in the AO basis.

  There are 2 irreducible representations.

       Irrep        # of functions
         1                104
         2                 53


  Parameters for SCF calculation: 
        SCF reference function:  RHF  
  Maximum number of iterations:  150
     Full symmetry point group: C s 
     Computational point group: C s 
        Initial density matrix: MOREAD                 
     SCF convergence tolerance: 10**(-10)
  DIIS convergence acceleration:  ON
          Latest start for DIIS:   8
                     DIIS order:   6

  Memory information:    1209746 words required.
  Fock matrices are constructed from AO integral file.
 @GETMEM-I,  Allocated       9 MB of main memory.
  Initialization and symmetry analysis required      0.002 seconds.

  @INITGES-I, Occupancies from core Hamiltonian:

          Alpha population by irrep:  10    3
           Beta population by irrep:  10    3


 total no. of electrons in initial guess :  0.000000000000000E+000
  --------------------------------------------------------------------
  Iteration         Total Energy            Largest Density Difference
  --------------------------------------------------------------------
       0            48.685056794888148              0.0000000000D+00
   current occupation vector 
    10  3
    10  3
       1          -366.373455924362531              0.1325524349D+02
   current occupation vector 
    10  3
    10  3
       2          -343.202440775069874              0.1322115792D+02
   current occupation vector 
    10  3
    10  3
       3          -422.338063884387623              0.1068339683D+02
   current occupation vector 
    10  3
    10  3
       4          -340.435287481867704              0.1069227360D+02
   current occupation vector 
    10  3
    10  3
       5          -422.105142809065740              0.1063683047D+02
   current occupation vector 
    10  3
    10  3
       6          -340.346706066807542              0.1063707058D+02
   current occupation vector 
    10  3
    10  3
       7          -422.097195906880984              0.1063512985D+02
   current occupation vector 
    10  3
    10  3
       8          -340.343965629769912              0.1063513699D+02
   current occupation vector 
    10  3
    10  3
       9          -445.098592093245884              0.8446021752D+01
   current occupation vector 
    10  3
    10  3
      10          -463.211870743743475              0.1989204676D+01
   current occupation vector 
    10  3
    10  3
      11          -466.658572498339822              0.3908637339D+00
   current occupation vector 
    10  3
    10  3
      12          -467.307504594331249              0.1000460758D+00
   current occupation vector 
    10  3
    10  3
      13          -483.357538428173825              0.2046563628D+01
   current occupation vector 
    10  3
    10  3
      14          -488.473079935103556              0.6065640937D+00
   current occupation vector 
    10  3
    10  3
      15          -509.166443757935212              0.7363321845D+01
   current occupation vector 
    10  3
    10  3
      16          -523.322928009365114              0.7362560215D+01
   current occupation vector 
    11  2
    11  2
      17          -528.447047872357189              0.3740541656D+01
   current occupation vector 
    11  2
    11  2
      18          -532.237951429202212              0.1608163439D+01
   current occupation vector 
    11  2
    11  2
      19          -534.522174540066999              0.2289395165D+01
   current occupation vector 
    10  3
    10  3
      20          -534.716897465879583              0.7170795188D+00
   current occupation vector 
    10  3
    10  3
      21          -534.761967284185744              0.2238158849D+00
   current occupation vector 
    10  3
    10  3
      22          -534.768102132409354              0.9552529453D-01
   current occupation vector 
    10  3
    10  3
      23          -534.769213349133793              0.4909654820D-01
   current occupation vector 
    10  3
    10  3
      24          -534.769356412683919              0.1980412330D-01
   current occupation vector 
    10  3
    10  3
      25          -534.769379185663638              0.7048622679D-02
   current occupation vector 
    10  3
    10  3
      26          -534.769381857497478              0.2386812446D-02
   current occupation vector 
    10  3
    10  3
      27          -534.769382092403475              0.5511671936D-03
   current occupation vector 
    10  3
    10  3
      28          -534.769382125195762              0.2197505149D-03
   current occupation vector 
    10  3
    10  3
      29          -534.769382128779625              0.6754619355D-04
   current occupation vector 
    10  3
    10  3
      30          -534.769382129534620              0.3943433681D-04
   current occupation vector 
    10  3
    10  3
      31          -534.769382129673659              0.1498256255D-04
   current occupation vector 
    10  3
    10  3
      32          -534.769382129698329              0.8530993986D-05
   current occupation vector 
    10  3
    10  3
      33          -534.769382129700034              0.9486559364D-06
   current occupation vector 
    10  3
    10  3
      34          -534.769382129701512              0.5160887609D-06
   current occupation vector 
    10  3
    10  3
      35          -534.769382129699352              0.1392138089D-06
   current occupation vector 
    10  3
    10  3
      36          -534.769382129701853              0.5852862861D-07
   current occupation vector 
    10  3
    10  3
      37          -534.769382129700602              0.1695815302D-07
   current occupation vector 
    10  3
    10  3
      38          -534.769382129697760              0.1229976087D-07
   current occupation vector 
    10  3
    10  3
      39          -534.769382129701512              0.3851006181D-08
   current occupation vector 
    10  3
    10  3
      40          -534.769382129699579              0.3165544243D-08
   current occupation vector 
    10  3
    10  3
      41          -534.769382129702421              0.7835801868D-09
   current occupation vector 
    10  3
    10  3
      42          -534.769382129703786              0.3435945972D-09
   current occupation vector 
    10  3
    10  3
      43          -534.769382129701057              0.1093902677D-09
   current occupation vector 
    10  3
    10  3

  SCF has converged.

 Density matrix saved to file den.dat
 total electron number:   26.0000000000002     
     E(SCF)=      -534.769382129702990              0.4865446934D-10

  Eigenvector printing suppressed.

 @PUTMOS-I, Writing converged MOs to NEWMOS. 
 @PUTMOS-I, Symmetry   1 Full Blocks 26 Partial Blocksize   0
 @PUTMOS-I, Symmetry   2 Full Blocks 13 Partial Blocksize   1
 @PUTFOCK-I, Writing converged Fock matrix to NEWFOCK. 
 @PUTFOCK-I, Symmetry   1 Full Blocks 26 Partial Blocksize   0
 @PUTFOCK-I, Symmetry   2 Full Blocks 13 Partial Blocksize   1


 
  ORBITAL EIGENVALUES (ALPHA)  (1H = 27.2113834 eV)

       MO #        E(hartree)               E(eV)           FULLSYM    COMPSYM
       ----   --------------------   --------------------   -------   ---------
    1     1        -104.8831548167       -2854.0157379183     A'        A'  (1)
    2     2         -20.6685199623        -562.4190210053     A'        A'  (1)
    3     3         -10.6029400359        -288.5206664831     A'        A'  (1)
    4     4          -8.0695904025        -219.5847183242     A'        A'  (1)
    5     5          -8.0674481527        -219.5264247420     A'        A'  (1)
    6   105          -8.0672470585        -219.5209526922     A''       A'' (2)
    7     6          -1.3516907964         -36.7813764984     A'        A'  (1)
    8     7          -1.0271440325         -27.9500100762     A'        A'  (1)
    9   106          -0.6022123200         -16.3870303288     A''       A'' (2)
   10     8          -0.5983308801         -16.2814109787     A'        A'  (1)
   11     9          -0.5774555893         -15.7133654373     A'        A'  (1)
   12   107          -0.4336782026         -11.8009838427     A''       A'' (2)
   13    10          -0.4277803538         -11.6404952175     A'        A'  (1)
  +++++++++++++++++++++++++++++++++++++++++++++++++++++++++++++++++++++++++++++
   14    11          -0.0267545376          -0.7280279796     A'        A'  (1)
   15    12           0.0543833070           1.4798450172     A'        A'  (1)
   16    13           0.0840146022           2.2861535525     A'        A'  (1)
   17   108           0.1178206978           3.2060641795     A''       A'' (2)
   18    14           0.1183304738           3.2199358899     A'        A'  (1)
   19    15           0.1497814238           4.0757597501     A'        A'  (1)
   20    16           0.1642551501           4.4696098637     A'        A'  (1)
   21    17           0.1763593890           4.7989829489     A'        A'  (1)
   22   109           0.1919091646           5.2221138552     A''       A'' (2)
   23    18           0.2218642236           6.0372324514     A'        A'  (1)
   24   110           0.2464246774           6.7055563749     A''       A'' (2)
   25    19           0.2799361722           7.6174505085     A'        A'  (1)
   26    20           0.3123669235           8.4999361169     A'        A'  (1)
   27    21           0.3373556601           9.1799142081     A'        A'  (1)
   28   111           0.3730217348          10.1504374428     A''       A'' (2)
   29    22           0.3874944423          10.5442598354     A'        A'  (1)
   30   112           0.4256919268          11.5836662304     A''       A'' (2)
   31    23           0.4590478263          12.4913264011     A'        A'  (1)
   32    24           0.5091014859          13.8533557228     A'        A'  (1)
   33    25           0.5898422224          16.0504228584     A'        A'  (1)
   34   113           0.6182837475          16.8243561032     A''       A'' (2)
   35    26           0.6476870556          17.6244607937     A'        A'  (1)
   36    27           0.6721804328          18.2909594707     A'        A'  (1)
   37   114           0.7451416413          20.2763348894     A''       A'' (2)
   38    28           0.7536124812          20.5068381621     A'        A'  (1)
   39    29           0.7657045781          20.8358808454     A'        A'  (1)
   40   115           0.7760672857          21.1178644555     A''       A'' (2)
   41    30           0.8018853937          21.8204108902     A'        A'  (1)
   42    31           0.8294828690          22.5713763729     A'        A'  (1)
   43   116           0.8297578967          22.5788602555     A''       A'' (2)
   44   117           0.8886754024          24.1820870926     A''       A'' (2)
   45    32           0.9015247340          24.5317351818     A'        A'  (1)
   46   118           0.9418060611          25.6278458174     A''       A'' (2)
   47    33           0.9551559281          25.9911141657     A'        A'  (1)
   48   119           0.9580708382          26.0704329023     A''       A'' (2)
   49    34           0.9802032209          26.6726856550     A'        A'  (1)
   50    35           1.0125236042          27.5521679953     A'        A'  (1)
   51    36           1.0333205161          28.1180807394     A'        A'  (1)
   52    37           1.0657162881          28.9996145105     A'        A'  (1)
   53   120           1.0987861438          29.8994910348     A''       A'' (2)
   54    38           1.1100065620          30.2048141350     A'        A'  (1)
   55   121           1.1674393220          31.7676389875     A''       A'' (2)
   56    39           1.2128298171          33.0027771509     A'        A'  (1)
   57    40           1.2224800650          33.2653737465     A'        A'  (1)
   58   122           1.2999241683          35.3727349337     A''       A'' (2)
   59    41           1.3522946382          36.7978078695     A'        A'  (1)
   60   123           1.3696899548          37.2711584998     A''       A'' (2)
   61    42           1.5145305075          41.2124703111     A'        A'  (1)
   62    43           1.5203430361          41.3706372562     A'        A'  (1)
   63   124           1.5240799577          41.4723240614     A''       A'' (2)
   64    44           1.6230085637          44.1643082893     A'        A'  (1)
   65    45           1.7275724828          47.0096371798     A'        A'  (1)
   66    46           1.8297003165          49.7886768190     A'        A'  (1)
   67   125           2.1518266140          58.5541790038     A''       A'' (2)
   68    47           2.2002934758          59.8730293628     A'        A'  (1)
   69   126           2.2209038650          60.4338665646     A''       A'' (2)
   70    48           2.2656893367          61.6525412072     A'        A'  (1)
   71   127           2.3069414252          62.7750676016     A''       A'' (2)
   72    49           2.3117703898          62.9064704098     A'        A'  (1)
   73    50           2.3208673603          63.1540115613     A'        A'  (1)
   74    51           2.3682528082          64.4434351517     A'        A'  (1)
   75   128           2.4012063338          65.3401461704     A''       A'' (2)
   76    52           2.4115601208          65.6218870383     A'        A'  (1)
   77   129           2.4432850004          66.4851649023     A''       A'' (2)
   78   130           2.4799432699          67.4826871276     A''       A'' (2)
   79    53           2.4990727433          68.0032265614     A'        A'  (1)
   80   131           2.5241790336          68.6864034540     A''       A'' (2)
   81    54           2.5283720293          68.8005006673     A'        A'  (1)
   82    55           2.6343386824          71.6839998911     A'        A'  (1)
   83    56           2.8940523296          78.7511675199     A'        A'  (1)
   84   132           2.9029061337          78.9920917775     A''       A'' (2)
   85    57           2.9705926084          80.8339343936     A'        A'  (1)
   86    58           3.0549842514          83.1303477449     A'        A'  (1)
   87   133           3.0630934213          83.3510094769     A''       A'' (2)
   88   134           3.1037285431          84.4567473568     A''       A'' (2)
   89    59           3.1309128186          85.1964690981     A'        A'  (1)
   90    60           3.1435254815          85.5396771048     A'        A'  (1)
   91    61           3.2103027287          87.3567783819     A'        A'  (1)
   92   135           3.3656201778          91.5831810362     A''       A'' (2)
   93    62           3.3725266984          91.7711170180     A'        A'  (1)
   94    63           3.4031908017          92.6055296873     A'        A'  (1)
   95    64           3.8080542701         103.6224247514     A'        A'  (1)
   96   136           3.8159857034         103.8382500255     A''       A'' (2)
   97    65           3.8569640251         104.9533268477     A'        A'  (1)
   98   137           3.9758640778         108.1887617662     A''       A'' (2)
   99    66           4.0835234878         111.1183232481     A'        A'  (1)
  100   138           4.0943482052         111.4128787846     A''       A'' (2)
  101   139           4.1997402769         114.2807428555     A''       A'' (2)
  102    67           4.2004731150         114.3006843925     A'        A'  (1)
  103    68           4.2317122743         115.1507451350     A'        A'  (1)
  104    69           4.4956516813         122.3329015331     A'        A'  (1)
  105    70           4.8978262887         133.2766289693     A'        A'  (1)
  106    71           5.1166137433         139.2301382784     A'        A'  (1)
  107    72           5.8915618464         160.3175482283     A'        A'  (1)
  108   140           6.5743724969         178.8977706268     A''       A'' (2)
  109    73           6.6213226279         180.1753486416     A'        A'  (1)
  110   141           6.6704655675         181.5125960137     A''       A'' (2)
  111    74           6.6841843145         181.8859020970     A'        A'  (1)
  112   142           6.7730362705         184.3036867376     A''       A'' (2)
  113    75           6.8771619246         187.1370898347     A'        A'  (1)
  114    76           6.9359226286         188.7360498805     A'        A'  (1)
  115   143           7.0604969357         192.1258891106     A''       A'' (2)
  116    77           7.1302314373         194.0234613710     A'        A'  (1)
  117   144           7.1674314427         195.0357249800     A''       A'' (2)
  118    78           7.5034479384         204.1791986741     A'        A'  (1)
  119    79           7.6578194357         208.3798606724     A'        A'  (1)
  120   145          10.3550710565         281.7758086540     A''       A'' (2)
  121    80          10.3595233648         281.8969621213     A'        A'  (1)
  122   146          10.3934726322         282.8207686534     A''       A'' (2)
  123    81          10.4345543495         283.9386590120     A'        A'  (1)
  124    82          10.5975082673         288.3728605458     A'        A'  (1)
  125   147          12.6844406375         345.1611774026     A''       A'' (2)
  126    83          12.7274930364         346.3326927355     A'        A'  (1)
  127    84          13.1924852147         358.9857731763     A'        A'  (1)
  128    85          18.2525832775         496.6780416041     A'        A'  (1)
  129   148          26.0503603761         708.8663439027     A''       A'' (2)
  130    86          26.1706160005         712.1386658034     A'        A'  (1)
  131    87          26.5708602980         723.0298668354     A'        A'  (1)
  132    88          28.7484908100         782.2862056034     A'        A'  (1)
  133   149          36.9021434872        1004.1583747111     A''       A'' (2)
  134    89          36.9033880404        1004.1922407274     A'        A'  (1)
  135   150          36.9036971001        1004.2006506682     A''       A'' (2)
  136    90          36.9052837042        1004.2438243606     A'        A'  (1)
  137   151          36.9114474451        1004.4115482781     A''       A'' (2)
  138    91          36.9115505514        1004.4143539419     A'        A'  (1)
  139    92          36.9161226871        1004.5387680797     A'        A'  (1)
  140   152          43.8614895580        1193.5318088573     A''       A'' (2)
  141    93          43.8746048779        1193.8886948574     A'        A'  (1)
  142   153          43.8968246772        1194.4933263339     A''       A'' (2)
  143    94          43.9543632617        1196.0590308166     A'        A'  (1)
  144    95          44.0504651811        1198.6740969905     A'        A'  (1)
  145   154          46.4891781696        1265.0348511229     A''       A'' (2)
  146    96          46.4916524350        1265.1021793094     A'        A'  (1)
  147   155          46.5140020581        1265.7103434709     A''       A'' (2)
  148    97          46.5356184819        1266.2985562680     A'        A'  (1)
  149    98          46.6186355302        1268.5575649984     A'        A'  (1)
  150   156          55.0236095596        1497.2685357791     A''       A'' (2)
  151    99          55.0716517374        1498.5758298975     A'        A'  (1)
  152   100          55.6170264940        1513.4162314950     A'        A'  (1)
  153   101         103.7983673036        2824.4971689934     A'        A'  (1)
  154   157         138.2116709574        3760.9307687771     A''       A'' (2)
  155   102         138.2955781158        3763.2139986345     A'        A'  (1)
  156   103         138.5810734783        3770.9827224029     A'        A'  (1)
  157   104         149.4601994948        4067.0187914923     A'        A'  (1)


  VSCF finished.

 @CHECKOUT-I, Total execution time (CPU/WALL):       73.16/      13.46 seconds.
--executable xvscf finished with status     0 in       13.50 seconds (walltime).
 --invoking executable--
/home/asmola/.local/bin/xvtran
 @GETMEM-I,  Allocated    3814 MB of main memory.
  Full RHF integral transformation
  Transformation of IIII integrals :
  1 pass through the AO integral file was required.
    14121903 AO integrals were read.
    15933126 MO integrals were written to HF2.
  Transformation of IIJJ integrals :
  1 pass through the AO integral file was required.
     6877138 AO integrals were read.
     7813260 MO integrals were written to HF2.
  Transformation of IJIJ integrals :
  1 pass through the AO integral file was required.
    13289242 AO integrals were read.
    15193828 MO integrals were written to HF2.
  Summary of active molecular orbitals: 
------------------------------------------------------------------------
 
  Index      Eigenvalue    Symmetry    Index      Eigenvalue    Symmetry
------------------------------------------------------------------------
     1      -104.8831548        1        80         7.1302314        1
     2       -20.6685200        1        81         7.5034479        1
     3       -10.6029400        1        82         7.6578194        1
     4        -8.0695904        1        83        10.3595234        1
     5        -8.0674482        1        84        10.4345543        1
     6        -1.3516908        1        85        10.5975083        1
     7        -1.0271440        1        86        12.7274930        1
     8        -0.5983309        1        87        13.1924852        1
     9        -0.5774556        1        88        18.2525833        1
    10        -0.4277804        1        89        26.1706160        1
    11        -8.0672471        2        90        26.5708603        1
    12        -0.6022123        2        91        28.7484908        1
    13        -0.4336782        2        92        36.9033880        1
    14        -0.0267545        1        93        36.9052837        1
    15         0.0543833        1        94        36.9115506        1
    16         0.0840146        1        95        36.9161227        1
    17         0.1183305        1        96        43.8746049        1
    18         0.1497814        1        97        43.9543633        1
    19         0.1642552        1        98        44.0504652        1
    20         0.1763594        1        99        46.4916524        1
    21         0.2218642        1       100        46.5356185        1
    22         0.2799362        1       101        46.6186355        1
    23         0.3123669        1       102        55.0716517        1
    24         0.3373557        1       103        55.6170265        1
    25         0.3874944        1       104       103.7983673        1
    26         0.4590478        1       105       138.2955781        1
    27         0.5091015        1       106       138.5810735        1
    28         0.5898422        1       107       149.4601995        1
    29         0.6476871        1       108         0.1178207        2
    30         0.6721804        1       109         0.1919092        2
    31         0.7536125        1       110         0.2464247        2
    32         0.7657046        1       111         0.3730217        2
    33         0.8018854        1       112         0.4256919        2
    34         0.8294829        1       113         0.6182837        2
    35         0.9015247        1       114         0.7451416        2
    36         0.9551559        1       115         0.7760673        2
    37         0.9802032        1       116         0.8297579        2
    38         1.0125236        1       117         0.8886754        2
    39         1.0333205        1       118         0.9418061        2
    40         1.0657163        1       119         0.9580708        2
    41         1.1100066        1       120         1.0987861        2
    42         1.2128298        1       121         1.1674393        2
    43         1.2224801        1       122         1.2999242        2
    44         1.3522946        1       123         1.3696900        2
    45         1.5145305        1       124         1.5240800        2
    46         1.5203430        1       125         2.1518266        2
    47         1.6230086        1       126         2.2209039        2
    48         1.7275725        1       127         2.3069414        2
    49         1.8297003        1       128         2.4012063        2
    50         2.2002935        1       129         2.4432850        2
    51         2.2656893        1       130         2.4799433        2
    52         2.3117704        1       131         2.5241790        2
    53         2.3208674        1       132         2.9029061        2
    54         2.3682528        1       133         3.0630934        2
    55         2.4115601        1       134         3.1037285        2
    56         2.4990727        1       135         3.3656202        2
    57         2.5283720        1       136         3.8159857        2
    58         2.6343387        1       137         3.9758641        2
    59         2.8940523        1       138         4.0943482        2
    60         2.9705926        1       139         4.1997403        2
    61         3.0549843        1       140         6.5743725        2
    62         3.1309128        1       141         6.6704656        2
    63         3.1435255        1       142         6.7730363        2
    64         3.2103027        1       143         7.0604969        2
    65         3.3725267        1       144         7.1674314        2
    66         3.4031908        1       145        10.3550711        2
    67         3.8080543        1       146        10.3934726        2
    68         3.8569640        1       147        12.6844406        2
    69         4.0835235        1       148        26.0503604        2
    70         4.2004731        1       149        36.9021435        2
    71         4.2317123        1       150        36.9036971        2
    72         4.4956517        1       151        36.9114474        2
    73         4.8978263        1       152        43.8614896        2
    74         5.1166137        1       153        43.8968247        2
    75         5.8915618        1       154        46.4891782        2
    76         6.6213226        1       155        46.5140021        2
    77         6.6841843        1       156        55.0236096        2
    78         6.8771619        1       157       138.2116710        2
    79         6.9359226        1
------------------------------------------------------------------------
  -104.883154816683       -20.6685199623220       -10.6029400358646     
  -8.06959040253002       -8.06744815267354       -1.35169079637319     
  -1.02714403253025      -0.598330880108912      -0.577455589314227     
 -0.427780353772714       -8.06724705852968      -0.602212320038729     
 -0.433678202583069      -2.675453757170564E-002  5.438330699405836E-002
  8.401460222987024E-002  0.118330473778582       0.149781423832608     
  0.164255150058833       0.176359388951227       0.221864223611999     
  0.279936172172509       0.312366923502031       0.337355660061899     
  0.387494442320762       0.459047826324755       0.509101485916811     
  0.589842222371154       0.647687055619432       0.672180432791036     
  0.753612481241726       0.765704578083769       0.801885393678013     
  0.829482869028047       0.901524734011591       0.955155928076947     
  0.980203220944453        1.01252360419439        1.03332051612485     
   1.06571628807834        1.11000656199633        1.21282981705726     
   1.22248006496040        1.35229463818625        1.51453050752082     
   1.52034303614973        1.62300856373528        1.72757248276581     
   1.82970031648668        2.20029347581046        2.26568933673559     
   2.31177038980669        2.32086736028528        2.36825280818833     
   2.41156012076530        2.49907274326206        2.52837202930665     
   2.63433868235733        2.89405232958052        2.97059260844471     
   3.05498425136546        3.13091281856913        3.14352548149990     
   3.21030272874360        3.37252669844106        3.40319080166084     
   3.80805427008830        3.85696402512412        4.08352348775218     
   4.20047311495663        4.23171227432110        4.49565168131473     
   4.89782628873261        5.11661374329062        5.89156184644123     
   6.62132262785278        6.68418431445829        6.87716192461966     
   6.93592262863422        7.13023143729719        7.50344793841297     
   7.65781943568495        10.3595233648186        10.4345543494863     
   10.5975082672864        12.7274930364449        13.1924852147099     
   18.2525832774843        26.1706160004854        26.5708602979509     
   28.7484908100427        36.9033880404409        36.9052837041925     
   36.9115505513723        36.9161226870837        43.8746048779498     
   43.9543632616849        44.0504651810719        46.4916524350406     
   46.5356184819327        46.6186355302481        55.0716517373946     
   55.6170264939559        103.798367303640        138.295578115830     
   138.581073478348        149.460199494757       0.117820697771976     
  0.191909164575523       0.246424677360260       0.373021734821662     
  0.425691926798700       0.618283747499146       0.745141641325515     
  0.776067285703975       0.829757896669860       0.888675402390402     
  0.941806061111762       0.958070838189582        1.09878614384734     
   1.16743932201093        1.29992416826917        1.36968995482279     
   1.52407995770604        2.15182661399895        2.22090386498484     
   2.30694142516757        2.40120633375890        2.44328500043547     
   2.47994326990519        2.52417903361763        2.90290613367021     
   3.06309342129442        3.10372854313729        3.36562017777339     
   3.81598570344898        3.97586407775907        4.09434820519272     
   4.19974027691330        6.57437249687323        6.67046556749910     
   6.77303627045868        7.06049693565526        7.16743144267909     
   10.3550710565482        10.3934726322456        12.6844406375377     
   26.0503603761171        36.9021434871650        36.9036971000951     
   36.9114474451180        43.8614895579797        43.8968246772022     
   46.4891781695631        46.5140020580852        55.0236095596344     
   138.211670957425     
 @CHECKOUT-I, Total execution time (CPU/WALL):       33.53/      24.10 seconds.
--executable xvtran finished with status     0 in       24.16 seconds (walltime).
 --invoking executable--
/home/asmola/.local/bin/xintprc
 @GETMEM-I,  Allocated    3814 MB of main memory.
  Processing integrals for CCSD calculation.
  @GMOIAA-I, Processing MO integrals for spin case AA.
  @GMOIAA-I, Generation of integral list completed.
                      TYPE                NUMBER
                      ----               --------
                      PPPP              27524020
                      PPPH               9932000
                      PPHH                900748
                      PHPH                491140
                      PHHH                 89950
                      HHHH                  2356

                     TOTAL              38940214

  @FORMT2-I, Second-order MP correlation energies:
            ------------------------------------------------
            E(SCF)                  =   -534.769382129703 a.u.
            E2(AA)                  =     -0.111218188979 a.u.
            E2(AB)                  =     -0.658576869626 a.u.
            E2(TOT)                 =     -0.881013247583 a.u.
            Total MP2 energy        =   -535.650395377286 a.u.
            ------------------------------------------------
   Largest T2 amplitudes for spin case AB:
       _       _                 _       _                 _       _
   i   j   a   b             i   j   a   b             i   j   a   b
-----------------------------------------------------------------------------
[ 10  10  14  14]-0.05561 [  9   9  14  14]-0.04636 [ 10   9  14  14]-0.04023
[  9  10  14  14]-0.04023 [  8   8  19  19]-0.03514 [ 10   8  14  14] 0.02698
[  8  10  14  14] 0.02698 [  9   8  14  19]-0.02403 [  8   9  19  14]-0.02403
[  8   8  19  16] 0.02346 [  8   8  16  19] 0.02346 [  9   8  14  16] 0.02130
[  8   9  16  14] 0.02130 [  8   8  14  14]-0.02076 [ 10  10  15  14] 0.02054
-----------------------------------------------------------------------------
   Norm of T2AB vector (  1799624 symmetry allowed elements):  0.3728421147.
-----------------------------------------------------------------------------
 @CHECKOUT-I, Total execution time (CPU/WALL):        6.51/       8.11 seconds.
--executable xintprc finished with status     0 in        8.24 seconds (walltime).
  calling xvcc 
 --invoking executable--
/home/asmola/.local/bin/xvcc
 @GETMEM-I,  Allocated    3814 MB of main memory.
   CCSD energy will be calculated.
   The total correlation energy is -0.881013247583 a.u.
   The total correlation energy is -0.867602865145 a.u.
  Convergence information after     1 iterations: 
  Largest element of residual vector :  0.20698617E-01.
  Largest element of DIIS residual   :  0.20698617E-01.
   The total correlation energy is -0.891759468549 a.u.
  Convergence information after     2 iterations: 
  Largest element of residual vector : -0.16609285E-01.
  Largest element of DIIS residual   : -0.14636099E-01.
   The total correlation energy is -0.890200792675 a.u.
  Convergence information after     3 iterations: 
  Largest element of residual vector :  0.80620853E-02.
  Largest element of DIIS residual   :  0.83151027E-02.
   The total correlation energy is -0.893624866690 a.u.
  Convergence information after     4 iterations: 
  Largest element of residual vector : -0.33660991E-02.
  Largest element of DIIS residual   : -0.18540726E-02.
   The total correlation energy is -0.894349824569 a.u.
  Convergence information after     5 iterations: 
  Largest element of residual vector :  0.26340596E-02.
  Largest element of DIIS residual   :  0.13130877E-02.
   The total correlation energy is -0.894412396201 a.u.
  Convergence information after     6 iterations: 
  Largest element of residual vector :  0.71559506E-03.
  Largest element of DIIS residual   :  0.33783869E-03.
   The total correlation energy is -0.894423216752 a.u.
  Convergence information after     7 iterations: 
  Largest element of residual vector :  0.53021716E-03.
  Largest element of DIIS residual   :  0.25643076E-03.
   The total correlation energy is -0.894435644997 a.u.
  Convergence information after     8 iterations: 
  Largest element of residual vector :  0.19158321E-03.
  Largest element of DIIS residual   :  0.66363848E-04.
   The total correlation energy is -0.894426880540 a.u.
  Convergence information after     9 iterations: 
  Largest element of residual vector :  0.78770174E-04.
  Largest element of DIIS residual   : -0.39535822E-04.
   The total correlation energy is -0.894434811310 a.u.
  Convergence information after    10 iterations: 
  Largest element of residual vector :  0.28593168E-04.
  Largest element of DIIS residual   : -0.23099055E-04.
   The total correlation energy is -0.894435068417 a.u.
  Convergence information after    11 iterations: 
  Largest element of residual vector :  0.18598424E-04.
  Largest element of DIIS residual   :  0.13198742E-04.
   The total correlation energy is -0.894436693087 a.u.
  Convergence information after    12 iterations: 
  Largest element of residual vector : -0.68061243E-05.
  Largest element of DIIS residual   : -0.43408816E-05.
   The total correlation energy is -0.894437370262 a.u.
  Convergence information after    13 iterations: 
  Largest element of residual vector :  0.66511019E-05.
  Largest element of DIIS residual   :  0.34406309E-05.
   The total correlation energy is -0.894437616911 a.u.
  Convergence information after    14 iterations: 
  Largest element of residual vector :  0.16924547E-05.
  Largest element of DIIS residual   :  0.13502721E-05.
   The total correlation energy is -0.894437722289 a.u.
  Convergence information after    15 iterations: 
  Largest element of residual vector :  0.15757744E-05.
  Largest element of DIIS residual   :  0.54501373E-06.
   The total correlation energy is -0.894437730471 a.u.
  Convergence information after    16 iterations: 
  Largest element of residual vector :  0.45296672E-06.
  Largest element of DIIS residual   :  0.31893987E-06.
   The total correlation energy is -0.894437740030 a.u.
  Convergence information after    17 iterations: 
  Largest element of residual vector :  0.22536994E-06.
  Largest element of DIIS residual   :  0.14246751E-06.
   The total correlation energy is -0.894437731800 a.u.
  Convergence information after    18 iterations: 
  Largest element of residual vector :  0.11621501E-06.
  Largest element of DIIS residual   :  0.67942315E-07.
   The total correlation energy is -0.894437732404 a.u.
  Convergence information after    19 iterations: 
  Largest element of residual vector :  0.49405402E-07.
  Largest element of DIIS residual   : -0.46195257E-07.
   The total correlation energy is -0.894437733856 a.u.
  Convergence information after    20 iterations: 
  Largest element of residual vector :  0.30097365E-07.
  Largest element of DIIS residual   :  0.21153466E-07.
   The total correlation energy is -0.894437735086 a.u.
  Convergence information after    21 iterations: 
  Largest element of residual vector :  0.13949310E-07.
  Largest element of DIIS residual   :  0.11099543E-07.
   The total correlation energy is -0.894437736044 a.u.
  Convergence information after    22 iterations: 
  Largest element of residual vector :  0.82349200E-08.
  Largest element of DIIS residual   :  0.65723086E-08.
   The total correlation energy is -0.894437736197 a.u.
  Convergence information after    23 iterations: 
  Largest element of residual vector :  0.41390286E-08.
  Largest element of DIIS residual   :  0.28227617E-08.
   The total correlation energy is -0.894437736348 a.u.
  Convergence information after    24 iterations: 
  Largest element of residual vector :  0.19856262E-08.
  Largest element of DIIS residual   :  0.14216300E-08.
   The total correlation energy is -0.894437736284 a.u.
  Convergence information after    25 iterations: 
  Largest element of residual vector :  0.11618841E-08.
  Largest element of DIIS residual   :  0.74973553E-09.
[...]
 final tnorm  0.783537087904034     
  norm contr. I: |<0|L dT/dx|0>|^2   0.000000000000000E+000
  norm contr. II: <0|[nabla(1+L)e-T][nabla e^T]|0>  0.452287494296830     
  total norm contribution  0.452287494296830     
 oo  2.058227800839569E-003
 vv  -1.43567936891092     
 vo -3.057513623875991E-002
  Correlated perturbed 1-el contribution to DBOC  -1.46419627734884       cm**-1
  SUM_I |dc_I/dx|^2 contribution to DBOC  0.736744793414274       cm**-1
 
 
  The total diagonal Born-Oppenheimer correction (DBOC) is:      0.0084284527 a.u.
  The total diagonal Born-Oppenheimer correction (DBOC) is:       1849.831557 cm-1
 
 Total CC energy including DBOC  -535.655391413255     
 First-order density matrix is being calculated  (Symmetry block 2, perturbation   3)
 Calculation of the contributions of <pq||rs> to dI(i,j)/dx required   3.0 seconds.
 Calculation of the contributions of <pq||rs> to dI(a,b)/dx required  10.9 seconds.
 Calculation of the contributions of <pq||rs> to dI(i,a)/dx required   6.6 seconds.
 First-order Z-vector equations are solved for 1 perturbation.
 Convergence reached after  23 iterations.
        U*G(pq,rs) contribution is being calculated
             (Symmetry block 2, perturbation   3)

 CCSD contribution to force constants 

        0.0000000000        0.0000000000        0.0000000000
        0.0000000000        0.0000000000        0.0000000000
        0.0000000000        0.0000000000        0.0000000000
        0.0000000000        0.0000000000        0.0000000000
        0.0000000000        0.0000000000        0.0000000000
        0.0000000000        0.0000000000        0.0000000000
        0.0000000000        0.0000000000        0.0000000000
        0.0000000000        0.0000000000        0.0000000000
        0.0000000000        0.0000000000        0.0000000000
        0.0000000000        0.0000000000        0.0000000000
        0.0000000000        0.0000000000        0.0000000000
        0.0000000000        0.0000000000        0.0000000000
        0.0000000000        0.0000000000        0.0000000000
        0.0000000000        0.0000000000        0.0000000000
        0.0000000000        0.0000000000        0.0000000000
        0.0000000000        0.0000000000        0.0000000000
        0.0000000000        0.0000000000        0.0000000000
        0.0000000000        0.0000000000        0.0000000000
        0.0000000000        0.0000000000        0.0000000000
        0.0000000000        0.0000000000        0.0000000000
        0.0000000000        0.0000000000        0.0000000000
        0.0000000000        0.0000000000        0.0000000000
        0.0000000000        0.0000000000        0.0000000000
        0.0000000000        0.0000000000        0.0000000000
        0.0000000000        0.0000000000        0.0000000000
        0.0000000000        0.0000000000        0.0000000000
        0.0750764231        0.0066501143       -0.0817265374

 CCSD contribution to dipole derivatives 

        0.0000000000        0.0000000000        0.0000000000
        0.0000000000        0.0000000000        0.0000000000
        0.0000000000        0.0000000000        0.0000000000
        0.0000000000        0.0000000000        0.0000000000
        0.0000000000        0.0000000000        0.0000000000
        0.0000000000        0.0000000000        0.0000000000
        0.0000000000        0.0000000000        0.0000000000
        0.0000000000        0.0000000000        0.0000000000
        0.0000000000        0.0000000000        0.0215661672
 @CHECKOUT-I, Total execution time (CPU/WALL):     1009.03/     245.76 seconds.
--executable xsdcc finished with status     0 in      245.93 seconds (walltime).
 --invoking executable--
/home/asmola/.local/bin/xanti
 @GETMEM-I,  Allocated    3814 MB of main memory.
 CCSD MO derivative gammas will be sorted to Mulliken order.
 @CHECKOUT-I, Total execution time (CPU/WALL):        6.52/       5.19 seconds.
--executable xanti finished with status     0 in        5.32 seconds (walltime).
 --invoking executable--
/home/asmola/.local/bin/xbcktrn
 @GETMEM-I,  Allocated    3814 MB of main memory.
 CCSD MO derivative gammas will be transformed to the AO basis.
 @CHECKOUT-I, Total execution time (CPU/WALL):       10.97/      12.35 seconds.
--executable xbcktrn finished with status     0 in       12.40 seconds (walltime).
 --invoking executable--
/home/asmola/.local/bin/xvdint
 @GETMEM-I,  Allocated    3814 MB of main memory.
 One- and two-electron integral derivatives are calculated
 for RHF-CC/MBPT hessians and dipole derivatives.
 Spherical gaussians are used.
  magnet F F
 Evaluation of 2el integral derivatives

                      Two-electron integral gradient
                      ------------------------------

                         O #1 x     0.0000000000
                         O #1 y     0.0000000000
                         H #2 x     0.0000000000
                         H #2 y     0.0000000000
                         CL#3 x     0.0000000000
                         CL#3 y     0.0000000000


 O #1       0.0000000000            0.0000000000           -0.0850990302
 H #2       0.0000000000            0.0000000000            0.0003912366
 CL#3       0.0000000000            0.0000000000            0.0847077936


 Evaluation of 2e integral derivatives required  137.09 seconds.
  contribution to Hessian
        0.0000000000        0.0000000000        0.0000000000
        0.0000000000        0.0000000000        0.0000000000
       -0.0850990302        0.0003912366        0.0847077936
 @CHECKOUT-I, Total execution time (CPU/WALL):      137.21/      22.79 seconds.
--executable xvdint finished with status     0 in       22.89 seconds (walltime).
 --invoking executable--
/home/asmola/.local/bin/xanti
 @GETMEM-I,  Allocated    3814 MB of main memory.
 CCSD MO gammas will be sorted to Mulliken order.
 @CHECKOUT-I, Total execution time (CPU/WALL):        9.44/      15.62 seconds.
--executable xanti finished with status     0 in       15.72 seconds (walltime).
 --invoking executable--
/home/asmola/.local/bin/xbcktrn
 @GETMEM-I,  Allocated    3814 MB of main memory.
 CCSD MO gammas will be transformed to the AO basis.
 @CHECKOUT-I, Total execution time (CPU/WALL):       17.84/       3.03 seconds.
--executable xbcktrn finished with status     0 in        3.10 seconds (walltime).
 --invoking executable--
/home/asmola/.local/bin/xvdint
 @GETMEM-I,  Allocated    3814 MB of main memory.
 One- and two-electron integral derivatives are calculated
 for RHF-CC/MBPT hessians and dipole derivatives.
 Spherical gaussians are used.
  magnet F F

                     Kinetic energy integral gradient
                     --------------------------------

                         O #1 x     0.2993057687
                         O #1 y    -0.1193368616
                         H #2 x     0.0497636030
                         H #2 y     0.1067309048
                         CL#3 x    -0.3490693718
                         CL#3 y     0.0126059569


 O #1       0.2993057687           -0.1193368616            0.0000000000
 H #2       0.0497636030            0.1067309048            0.0000000000
 CL#3      -0.3490693718            0.0126059569            0.0000000000



                   Nuclear attraction integral gradient
                   ------------------------------------

                         O #1 x   -25.3883482679
                         O #1 y     4.4893956276
                         H #2 x    -2.0550401312
                         H #2 y    -3.2126831596
                         CL#3 x    27.4433883991
                         CL#3 y    -1.2767124681


 O #1     -25.3883482679            4.4893956276            0.0000000000
 H #2      -2.0550401312           -3.2126831596            0.0000000000
 CL#3      27.4433883991           -1.2767124681            0.0000000000



                      Reorthonormalization gradient
                      -----------------------------

                         O #1 x     0.0000000000
                         O #1 y     0.0000000000
                         H #2 x     0.0000000000
                         H #2 y     0.0000000000
                         CL#3 x     0.0000000000
                         CL#3 y     0.0000000000


 O #1       0.0000000000            0.0000000000            0.0000000000
 H #2       0.0000000000            0.0000000000            0.0000000000
 CL#3       0.0000000000            0.0000000000            0.0000000000



                     Kinetic energy integral Hessian
                     -------------------------------


           Symmetry 1

           O #1 x      O #1 y      H #2 x      H #2 y      CL#3 x      CL#3 y

 O #1 x    0.365965
 O #1 y    0.037851   -0.136300
 H #2 x    0.019152   -0.071136   -0.024966
 H #2 y   -0.071136   -0.088503    0.070007    0.090775
 CL#3 x   -0.385117    0.033285    0.005814    0.001129    0.379303
 CL#3 y    0.033285    0.224803    0.001129   -0.002272   -0.034413   -0.222531


           Symmetry 2

           O #1 z      H #2 z      CL#3 z

 O #1 z   -0.273907
 H #2 z    0.058898   -0.057734
 CL#3 z    0.215009   -0.001164   -0.213845




           O #1 x      O #1 y      O #1 z      H #2 x      H #2 y      H #2 z

 O #1 x    0.365965
 O #1 y    0.037851   -0.136300
 O #1 z    0.000000    0.000000   -0.273907

 H #2 x    0.019152   -0.071136    0.000000   -0.024966
 H #2 y   -0.071136   -0.088503    0.000000    0.070007    0.090775
 H #2 z    0.000000    0.000000    0.058898    0.000000    0.000000   -0.057734

 CL#3 x   -0.385117    0.033285    0.000000    0.005814    0.001129    0.000000
 CL#3 y    0.033285    0.224803    0.000000    0.001129   -0.002272    0.000000
 CL#3 z    0.000000    0.000000    0.215009    0.000000    0.000000   -0.001164


           CL#3 x      CL#3 y      CL#3 z

 CL#3 x    0.379303
 CL#3 y   -0.034413   -0.222531
 CL#3 z    0.000000    0.000000   -0.213845




                   Nuclear attraction integral Hessian
                   -----------------------------------


           Symmetry 1

           O #1 x      O #1 y      H #2 x      H #2 y      CL#3 x      CL#3 y

 O #1 x  -13.510012
 O #1 y    0.896476    9.576856
 H #2 x   -0.837367    1.082291    0.701723
 H #2 y    1.069436    0.808908   -1.460183   -1.025491
 CL#3 x   14.347380   -1.978767    0.135644    0.390747  -14.483023
 CL#3 y   -1.965911  -10.385763    0.377892    0.216584    1.588019   10.169179


           Symmetry 2

           O #1 z      H #2 z      CL#3 z

 O #1 z   11.234381
 H #2 z   -1.425259    1.589719
 CL#3 z   -9.809121   -0.164460    9.973581




           O #1 x      O #1 y      O #1 z      H #2 x      H #2 y      H #2 z

 O #1 x  -13.510012
 O #1 y    0.896476    9.576856
 O #1 z    0.000000    0.000000   11.234381

 H #2 x   -0.837367    1.082291    0.000000    0.701723
 H #2 y    1.069436    0.808908    0.000000   -1.460183   -1.025491
 H #2 z    0.000000    0.000000   -1.425259    0.000000    0.000000    1.589719

 CL#3 x   14.347380   -1.978767    0.000000    0.135644    0.390747    0.000000
 CL#3 y   -1.965911  -10.385763    0.000000    0.377892    0.216584    0.000000
 CL#3 z    0.000000    0.000000   -9.809121    0.000000    0.000000   -0.164460


           CL#3 x      CL#3 y      CL#3 z

 CL#3 x  -14.483023
 CL#3 y    1.588019   10.169179
 CL#3 z    0.000000    0.000000    9.973581




                Highest order reorthonormalization Hessian
                ------------------------------------------


           Symmetry 1

           O #1 x      O #1 y      H #2 x      H #2 y      CL#3 x      CL#3 y

 O #1 x    0.000000
 O #1 y    0.000000    0.000000
 H #2 x    0.000000    0.000000    0.000000
 H #2 y    0.000000    0.000000    0.000000    0.000000
 CL#3 x    0.000000    0.000000    0.000000    0.000000    0.000000
 CL#3 y    0.000000    0.000000    0.000000    0.000000    0.000000    0.000000


           Symmetry 2

           O #1 z      H #2 z      CL#3 z

 O #1 z    0.000000
 H #2 z    0.000000    0.000000
 CL#3 z    0.000000    0.000000    0.000000




           O #1 x      O #1 y      O #1 z      H #2 x      H #2 y      H #2 z


           CL#3 x      CL#3 y      CL#3 z




                Electronic contributions to dipole moment
                -----------------------------------------

                               au             Debye

                    x      2.99576252      7.61447015
                    y      0.68261619      1.73503760

  Conversion factor used: 1 a.u. =   2.54174691 Debye 



   Electronic contributions to static part of dipole moment derivatives
   --------------------------------------------------------------------


                     Total dipole moment derivatives
                     -------------------------------


           Symmetry 1
                              Ex             Ey

               O #1 x    -8.68989419    -0.08384690
               O #1 y    -0.31893790    -8.72946874
               H #2 x    -0.56512834     0.06140590
               H #2 y     0.35517963    -0.46971247
               CL#3 x   -16.74497747     0.02244100
               CL#3 y    -0.03624173   -16.80081879

           Symmetry 2
                              Ez

               O #1 z    -8.39193026
               H #2 z    -0.76185662
               CL#3 z   -16.84621311



                       Ex          Ey          Ez

      O #1    x   -8.689894   -0.083847    0.000000
      O #1    y   -0.318938   -8.729469    0.000000
      O #1    z    0.000000    0.000000   -8.391930

      H #2    x   -0.565128    0.061406    0.000000
      H #2    y    0.355180   -0.469712    0.000000
      H #2    z    0.000000    0.000000   -0.761857

      CL#3    x  -16.744977    0.022441    0.000000
      CL#3    y   -0.036242  -16.800819    0.000000
      CL#3    z    0.000000    0.000000  -16.846213

 Evaluation of 1e integral derivatives required    1.58 seconds.
 Evaluation of 2el integral derivatives

                      Two-electron integral gradient
                      ------------------------------

                         O #1 x    11.8942622844
                         O #1 y    -2.3525257579
                         H #2 x     1.0654389165
                         H #2 y     1.8261454770
                         CL#3 x   -12.9597012009
                         CL#3 y     0.5263802809


 O #1      11.8942622844           -2.3525257579            0.0000000000
 H #2       1.0654389165            1.8261454770            0.0000000000
 CL#3     -12.9597012009            0.5263802809            0.0000000000


 Evaluation of 2e integral derivatives required  300.78 seconds.

                            Molecular gradient
                            ------------------

                         O #1 x    -0.0958944292
                         O #1 y     0.1722996012
                         H #2 x    -0.0712344062
                         H #2 y    -0.1685669070
                         CL#3 x     0.1671288354
                         CL#3 y    -0.0037326941


 O #1      -0.0958944292            0.1722996012            0.0000000000
 H #2      -0.0712344062           -0.1685669070            0.0000000000
 CL#3       0.1671288354           -0.0037326941            0.0000000000


  Molecular gradient norm 0.317E+00

                            Molecular hessian
                            -----------------


           Symmetry 1

           O #1 x      O #1 y      H #2 x      H #2 y      CL#3 x      CL#3 y

 O #1 x    2.042167
 O #1 y    0.613730    2.160785
 H #2 x   -0.350424   -1.237467    0.300815
 H #2 y   -1.094314   -3.078819    1.082037    3.000437
 CL#3 x   -1.691744    0.943140   -0.018982   -0.059443    1.710726
 CL#3 y    0.480584    0.918034   -0.007503   -0.006691   -0.473080   -0.911343


           Symmetry 2

           O #1 z      H #2 z      CL#3 z

 O #1 z    0.169742
 H #2 z   -0.062059    0.042128
 CL#3 z   -0.107683    0.007639    0.100045




           O #1 x      O #1 y      O #1 z      H #2 x      H #2 y      H #2 z

 O #1 x    2.042167
 O #1 y    0.613730    2.160785
 O #1 z    0.000000    0.000000    0.169742

 H #2 x   -0.350424   -1.237467    0.000000    0.300815
 H #2 y   -1.094314   -3.078819    0.000000    1.082037    3.000437
 H #2 z    0.000000    0.000000   -0.062059    0.000000    0.000000    0.042128

 CL#3 x   -1.691744    0.943140    0.000000   -0.018982   -0.059443    0.000000
 CL#3 y    0.480584    0.918034    0.000000   -0.007503   -0.006691    0.000000
 CL#3 z    0.000000    0.000000   -0.107683    0.000000    0.000000    0.007639


           CL#3 x      CL#3 y      CL#3 z

 CL#3 x    1.710726
 CL#3 y   -0.473080   -0.911343
 CL#3 z    0.000000    0.000000    0.100045




                           Total dipole moment
                           -------------------

                               au             Debye

                    x     -0.15877913     -0.40357636
                    y     -0.60214638     -1.53050369

  Conversion factor used: 1 a.u. =   2.54174691 Debye 



                     Total dipole moment derivatives
                     -------------------------------


           Symmetry 1
                              Ex             Ey

               O #1 x     0.12128021     0.24748177
               O #1 y     0.21328731     0.09117529
               H #2 x     0.03448479    -0.16909677
               H #2 y    -0.28495144    -0.14948506
               CL#3 x    -0.15576477    -0.07838472
               CL#3 y     0.07166471     0.05831036

           Symmetry 2
                              Ez

               O #1 z    -0.22925793
               H #2 z     0.20515563
               CL#3 z     0.02410227



                       Ex          Ey          Ez

      O #1    x    0.121280    0.247482    0.000000
      O #1    y    0.213287    0.091175    0.000000
      O #1    z    0.000000    0.000000   -0.229258

      H #2    x    0.034485   -0.169097    0.000000
      H #2    y   -0.284951   -0.149485    0.000000
      H #2    z    0.000000    0.000000    0.205156

      CL#3    x   -0.155765   -0.078385    0.000000
      CL#3    y    0.071665    0.058310    0.000000
      CL#3    z    0.000000    0.000000    0.024102

  Molecular gradient does not satisfy rotational invariance condition.
   rotational invariance in yz-plane :        0.0000E+00
   rotational invariance in xz-plane :        0.0000E+00
   rotational invariance in xy-plane :        -.1792E-01
 @CHECKOUT-I, Total execution time (CPU/WALL):      302.45/      42.94 seconds.
--executable xvdint finished with status     0 in       43.05 seconds (walltime).
 --invoking executable--
/home/asmola/.local/bin/xjoda
  @GTFLGS-I, Hessian will be transformed to curvilinear coordinates.
  @GTFLGS-I, Hessian will be transformed to curvilinear coordinates.
  igrd and ihes are                      0                     1
  gradient from JOBARC 
  -0.095894429185091   0.172299601157285   0.000000000000000
  -0.071234406176841  -0.168566907028814   0.000000000000000
   0.167128835361960  -0.003732694128473   0.000000000000000
 
  @PROJFCM-I, Projecting force constant matrix onto totally symmetric subspace.
  Largest difference between matrix elements of symmetrized
  and unsymmetrized FCM :     0.0000000000E+00.
  read isotopes from ZMAT file 
 
  Summary of diagonal Born-Oppenheimer correction at the correlated level
  The total diagonal Born-Oppenheimer correction (DBOC) is:      0.0084284527 a.u.
  The total diagonal Born-Oppenheimer correction (DBOC) is:       1849.831557 cm-1
  The total diagonal Born-Oppenheimer correction (DBOC) is:            22.129 kJ/mole
  hellooooooo 
  readis is  F
 
 @CHECKOUT-I, Total execution time (CPU/WALL):        0.02/       0.04 seconds.
--executable xjoda finished with status     0 in        0.08 seconds (walltime).
  The final electronic energy is      -535.655391413255416 a.u. 
  This computation required                         2808.81 seconds (walltime).
