 --invoking executable--
/home/asmola/.local/bin/xjoda


   *************************************************************************
         <<<     CCCCCC     CCCCCC   |||     CCCCCC     CCCCCC   >>>
       <<<      CCC        CCC       |||    CCC        CCC         >>>
      <<<      CCC        CCC        |||   CCC        CCC            >>>
    <<<        CCC        CCC        |||   CCC        CCC              >>>
      <<<      CCC        CCC        |||   CCC        CCC            >>>
       <<<      CCC        CCC       |||    CCC        CCC         >>>
         <<<     CCCCCC     CCCCCC   |||     CCCCCC     CCCCCC   >>>
   *************************************************************************

     ****************************************************************
     * CFOUR Coupled-Cluster techniques for Computational Chemistry *
     ****************************************************************
 

   Department of Chemistry                Institut fuer Physikalische Chemie
   University of Florida                  Universitaet Mainz
   Gainesville, FL 32611, USA             D-55099 Mainz, Germany

   Department of Chemistry                Fakultaet fuer Chemie und Biowiss.
   Johns Hopkins University               Karlsruher Institut fuer Technologie
   Baltimore, MD 21218, USA               D-76131 Karlsruhe, Germany

   Department of Chemistry                Department of Physical Chemistry
   Southern Methodist University          Eotvos Lorand University
   Dallas, TX 75275, USA                  H-1053 Budapest, Hungary

 
                       Version 2.1
 
                     vincent.theory.phys.ucl.ac.uk                     
                     Mon 21 Jul 10:37:24 BST 2025                      
                     integer*8 version is running
 
********************************************************************************
*                          Input from ZMAT file                                *
********************************************************************************
Hypochlorous acid higher-order corrections                                      
O                                                                               
H 1 ROH                                                                         
CL 1 ROCL 2 A                                                                   
                                                                                
ROH=0.96                                                                        
ROCL=1.683                                                                      
A=103.000000                                                                    
                                                                                
*CFOUR(CALC=CCSD(T),BASIS=AUG-PCVTZ,SCF_CONV=11                                 
CC_CONV=12,RELATIVISTIC=MVD1,MEMORY=500000000)                                  
                                                                                
********************************************************************************
    -------------------------------------------------------------------
                    CFOUR Control Parameters 
    -------------------------------------------------------------------
        External           Internal           Value            Units
          Name               Name
    -------------------------------------------------------------------
       ABCDTYPE             IABCDT         STANDARD    [  0]    ***   
       ANHARMONIC           IANHAR         OFF         [  0]    ***   
       ANH_ALGORIT          IANALG         STANDARD    [  0]    ***   
       ANH_DERIVAT          IANDER         SECOND      [  1]    ***   
       ANH_MODE             ANHMOD         VIBRATION   [  0]    ***   
       ANH_STEPSIZ          ICUBST             50000          x 10-6  
       ANH_SYMMETR          IANHSM         ABELIAN     [  0]    ***   
       AO_LADDERS           IAOLAD         SINGLEPASS  [  1]    ***   
       AV_SCF               IAVSCF         OFF         [  0]    ***   
       BASIS                IBASIS         AUG-PCVTZ   [ 51]    ***   
       BOTHVECTORS          BOTHVC         OFF         [  0]    ***   
       BOX_POTENT           IPIAB          OFF         [  0]    ***   
       BREIT                IBREIT         OFF         [  0]    ***   
       BRUCK_CONV           IBRTOL          10D-  4             ***   
       BRUECKNER            IBRKNR         OFF         [  0]    ***   
       BUFFERSIZE           IBUFFS              4096            ***   
       CACHE_RECS           ICHREC             10               ***   
       CALCLEVEL            ICLLVL         CCSD(T)     [ 22]    ***   
       CCORBOPT             ICCORB         OFF         [  0]  x 0.01  
       CC_CONV              ICCCNV          10D- 12             ***   
       CC_EXPORDER          ICCEOR              5               ***   
       CC_EXTRAPOL          ICCEXT         DIIS        [  1]    ***   
       CC_GUESS             ICCGES         MP2         [  0]    ***   
       CC_MAXCYC            ICCCYC            100              cycles 
       CC_PROGRAM           ICCPRO         VCC         [  0]    ***   
       CHARGE               ICHRGE              0               ***   
       CHOLESKY             ICHOLE         OFF         [  0]    ***   
       CIS_CONV             ICISTL              5               ***   
       COMM_SIZE            IPSIZE            ***               ***   
       CONSTANT             ICONST         OLD         [  1]    ***   
       CONTINUUM            ICONTU         NONE        [  0]    ***   
       CONTRACTION          ICNTYP         GENERAL     [  1]    ***   
       COORDINATES          ICOORD         INTERNAL    [  0]    ***   
       CPHF_CONVER          ICPHFT          10D- 16             ***   
       CPHF_MAXCYC          ICPHFC             64              cycles 
       CUBIC                ICUBIC         OFF         [  0]    ***   
       CURVILINEAR          ICURVY         OFF         [  0]    ***   
       DBOC                 IDBOC          OFF         [  0]    ***   
       DCT                  IDCT           OFF         [  0]    ***   
       DERIV_LEV            IDRLVL         FIRST       [  1]    ***   
       DEVMEM_SIZE          IDVMEM          50000000           MByte  
       DIAG_MRCC            IEOMST          10D-  0             ***   
       DIFF_TYPE            IDIFTY         RELAXED     [  0]    ***   
       DIRECT               IDIRCT         OFF         [  0]    ***   
       DROPMO               IDRPMO      NONE         
       ECP                  IECP           OFF         [  0]    ***   
       EIGENVECTOR          IVEC                1               ***   
       EL_ANHARM            IELANH         OFF         [  0]    ***   
       EOMFOLLOW            IEOMSR         ENERGY      [  0]    ***   
       EOMIP                IEOMIP         OFF         [  0]    ***   
       EOMLEVEL             HBARFM         SAME        [  0]    ***   
       EOM_MRCC             IMRCCE         NEW         [  1]    ***   
       EOM_NONIT            EOMNON         OFF         [  0]    ***   
       EOM_NSING            IEOMSI          10D-  0             ***   
       EOM_NSTATES          IMRCCD         DAVIDSON    [  0]    ***   
       EOM_NTRIP            IEOMTR          10D-  0             ***   
       EOM_ORDER            IEXORD         ENERGY      [  0]    ***   
       EOM_PROPSTA          IEOMST              0               ***   
       ESTATE_CONV          IEXTOL          10D-  5             ***   
       ESTATE_DIAG          IEXDIG         ITERATIVE   [  0]    ***   
       ESTATE_LOCK          IESLOC         ON          [  1]    ***   
       ESTATE_MAXC          IEXMXC             40               ***   
       ESTATE_PROP          IEXPRP         OFF         [  0]    ***   
       EVAL_HESS            IRECAL              0            # of cyc.
       EXCITATION           IEXCIT              0               ***   
       EXCITE               IEXCIT         NONE        [  0]    ***   
       EXTERN_POT           IEXPOT         OFF         [  0]    ***   
       FCGRADNEW            IFCGNW         OFF         [  0]    ***   
       FC_FIELD             IFINFC              0             x 10-6  
       FD_CALTYPE           IFDCAL         GRADONLY    [  0]    ***   
       FD_PROJECT           IFDPRJ         OFF         [  1]    ***   
       FD_STEPSIZE          IDISFD              0            10-4 bohr
       FD_USEGROUP          IFDGRP         FULL        [  0]    ***   
       FILE_RECSIZ          IFLREC              4096           words  
       FINITE_PERT          IFIPER              0             x 10-6  
       FIXGEOM              IFIXGM         OFF         [  0]    ***   
       FOCK                 IFOCK          AO          [  1]    ***   
       FREQ_ALGORI          IVIALG         STANDARD    [  0]    ***   
       FROZEN_CORE          IFROCO         OFF         [  0]    ***   
       GAMMA_ABCD           IGABCD         STORE       [  0]    ***   
       GAMMA_ABCI           IGABCI         STORE       [  0]    ***   
       GENBAS_1             IGNBS1              0               ***   
       GENBAS_2             IGNBS2              0               ***   
       GENBAS_3             IGNBS3              0               ***   
       GENBAS_4             IGNBS4              0               ***   
       GEO_CONV             ICONTL              5              H/bohr 
       GEO_MAXCYC           IOPTCY             50               ***   
       GEO_MAXSTEP          IMXSTP            300            millibohr
       GEO_METHOD           INR            SINGLE_POINT[  5]    ***   
       GIAO                 IGIAO          OFF         [  1]    ***   
       GIMIC                IGIMIC         OFF         [  0]    ***   
       GRID                 IGRID          OFF         [  0]    ***   
       GRID_ALGO            IGALGO         SERIAL      [  0]    ***   
       GUESS                IGUESS         MOREAD      [  0]    ***   
       HBAR                 IHBAR          OFF         [  0]    ***   
       HESS_TYPE            IHESTP         SCF         [  0]    ***   
       HF2_FILE             IHF2Fl         USE         [  1]    ***   
       HFSTABILITY          ISTABL         OFF         [  0]    ***   
       INCORE               INCORE         OFF         [  0]    ***   
       INPUT_MRCC           IMRCC          ON          [  1]    ***   
       INTEGRALS            INTTYP         VMOL        [  1]    ***   
       JODA_PRINT           IJPRNT              0               ***   
       KEYWORD_OUT          IDMPKW         NO          [  0]    ***   
       LINDEP_TOL           ILINDP              8               ***   
       LINEQ_CONV           IZTACN          10D-  7           cycles  
       LINEQ_EXPOR          ILMAXD              5               ***   
       LINEQ_MAXCY          ILMAXC            100               ***   
       LINEQ_TYPE           ILTYPE         DIIS        [  1]    ***   
       LOCK_ORBOCC          ILOCOC         OFF         [  0]    ***   
       MEMORY_SIZE          IMEMSZ         500000000           words  
       MEM_UNIT             IMEMU          INTEGERWORDS[  0]    ***   
       MRCC                 IMRCCC         OFF         [  0]    ***   
       MULTIPLICTY          IMULTP              1               ***   
       NACOUPLING           IVCOUP         OFF         [  0]    ***   
       NEGEVAL              IDIE           ABORT       [  0]    ***   
       NEWNORM              INEWNO         OFF         [  0]    ***   
       NON-HF               INONHF         OFF         [  0]    ***   
       NTOP_TAMP            ITOPT2             15               ***   
       NUC_MODEL            INUCMO         POINT       [  0]    ***   
       OCCUPATION           IOCCU   ESTIMATED BY SCF 
       OPEN-SHELL           IOPEN          SPIN-ORBITAL[  0]    ***   
       OPTVIB               IOPTVB         OFF         [  0]    ***   
       ORBITALS             IORBTP         STANDARD    [  0]    ***   
       PARALLEL             IPARAL         ON          [  1]    ***   
       PARA_INT             IPINTS         ON          [  1]    ***   
       PARA_PRINT           IPPRIN              0               ***   
       PERT_ORB             IPTORB         CANONICAL   [  1]    ***   
       POINTS               IGRDFD              0               ***   
       PRINT                IPRNT               0               ***   
       PROPS                IPROPS         OFF         [  0]    ***   
       PROP_INTEGR          IINTYP         INTERNAL    [  0]    ***   
       PSI                  IPSI           OFF         [  0]    ***   
       QC_ALG               IQCALG         FLM         [  0]    ***   
       QC_LINALG            IQCLIN         TRIDIAG     [  2]    ***   
       QC_MAXCYC            IQCMAX          10D-100           cycles  
       QC_MAXSCFCY          IQCMSC          10D- 15           cycles  
       QC_RTRUST            IQCRTR          10D-  0           x 10-3  
       QC_SKIPSCF           IQCSKI         OFF         [  0]    ***   
       QC_START             IQCSTA          10D-  1             ***   
       QRHFGUESS            IQGUES         OFF         [  0]    ***   
       QUARTIC              IQUART         OFF         [  0]    ***   
       RAMAN_INT            IRAMIN         OFF         [  0]    ***   
       RAMAN_ORB            IRAMRE         UNRELAXED   [  0]    ***   
       RDO                  IRDOFM         ON          [  1]    ***   
       REDUCE_REPR          REDREP         Ir          [  0]    ***   
       REFERENCE            IREFNC         RHF         [  0]    ***   
       RELATIVIST           IRELAT         MVD1        [  1]    ***   
       RELAX_DENS           IRDENS         ON          [  1]    ***   
       RESET_FLAGS          IRESET         OFF         [  0]    ***   
       RESTART_CC           ICCRES         OFF         [  0]    ***   
       ROT_EVEC             ROTVEC              0               ***   
       SAVE_INTS            ISVINT         OFF         [  0]    ***   
       SCALE_ON             ISTCRT              0               ***   
       SCF_CONV             ISCFCV          10D- 11             ***   
       SCF_DAMPING          IDAMP               0             x 10-3  
       SCF_EXPORDE          IRPPOR              6               ***   
       SCF_EXPSTAR          IRPPLS              8               ***   
       SCF_EXTRAPO          IRPP           ON          [  1]    ***   
       SCF_MAXCYC           ISCFCY            150              cycles 
       SCF_NOSTOP           ISCFST         OFF         [  0]    ***   
       SCF_PRINT            ISCFPR              0               ***   
       SCF_PROG             ISCFPR         SCF         [  0]    ***   
       SD_FIELD             IFINSD              0             x 10-6  
       SOPERT               IPERSO         OFF         [  0]    ***   
       SPHERICAL            IDFGHI         ON          [  1]    ***   
       SPINORBIT            ISOCAL         OFF         [  0]    ***   
       SPINROTATIO          ISRCON         OFF         [  0]    ***   
       SPIN_FLIP            ISPFLP         OFF         [  0]    ***   
       SPIN_ORBIT           ISPORB         OFF         [  0]    ***   
       SPIN_SCAL            ISCSMP         OFF         [  0]    ***   
       STEEPSCALE           ISTPSC              1000          x 10-3  
       SUBGROUP             ISUBGP         DEFAULT     [  0]    ***   
       SUBGRPAXIS           ISBXYZ         X           [  0]    ***   
       SYMMETRY             ISYM           ON          [  0]    ***   
       SYM_CHECK            ISYMCK         OVERRIDE    [  1]    ***   
       T3_EXTRAPOL          IT3EXT         OFF         [  0]    ***   
       T4_EXTRAPOL          IT4EXP         OFF         [  0]    ***   
       TAMP_SUM             IEVERY              5               ***   
       TESTSUITE            ITESTS         OFF         [  0]    ***   
       THERMOCH             ITHERM         OFF         [  0]    ***   
       TOL_CHOLESK          ITOLCH          10D-  4             ***   
       TRANGRAD             IRESRM         OFF         [  0]    ***   
       TRANS_INV            ITRAIN         USE         [  0]    ***   
       TREAT_PERT           ITREAT         SIMULTANEOUS[  0]    ***   
       TRIP_ALGORI          ITRALG         NORMAL      [  0]    ***   
       UIJ_THRESHO          IUIJTH              1               ***   
       UNITS                IUNITS         ANGSTROM    [  0]    ***   
       UNOS                 IUNOS          OFF         [  0]    ***   
       UPDATE_HESS          IHUPDT         ON          [  1]    ***   
       VIBPHASE             ISETPH         STANDARD    [  0]    ***   
       VIBRATION            IVIB           NO          [  0]    ***   
       VIB_ALGORIT          IGEALG         STANDARD    [  0]    ***   
       VNATORB              IVNORB         OFF         [  0]    ***   
       VTRAN                IVTRAN         FULL/PARTIAL[  0]    ***   
       XFIELD               IXEFLD              0             x 10-6  
       XFORM_TOL            IXFTOL          10D- 11             ***   
       YFIELD               IYEFLD              0             x 10-6  
       ZFIELD               IZEFLD              0             x 10-6  
       ZSCALE_EXP           IZEXPS         OFF         [  0]    ***   
    -------------------------------------------------------------------
   3 entries found in Z-matrix 
   Job Title : Hypochlorous acid higher-order corrections                                      
   There are  3 unique internal coordinates.
   Of these,  0 will be optimized.
   User supplied Z-matrix: 
--------------------------------------------------------------------------------
       SYMBOL    BOND      LENGTH    ANGLE     ANGLE     DIHED     ANGLE
                  TO      (ANGST)    WRT      (DEG)      WRT      (DEG)
--------------------------------------------------------------------------------
        O    
        H          1         ROH  
        CL         1         ROCL       2        A    
                  *Initial values for internal coordinates* 
                      Name             Value
                        ROH             0.9600000000
                        ROCL            1.6830000000
                        A             103.0000000000
--------------------------------------------------------------------------------
   Rotational constants (in cm-1): 
          0.4986283810             0.5109414749            20.6909752034
   Rotational constants (in MHz): 
      14948.5048915352         15317.6422116400        620299.9183677260
********************************************************************************
   The full molecular point group is C s .
   The largest Abelian subgroup of the full molecular point group is C s .
   The computational point group is C s .
********************************************************************************
--------------------------------------------------------------------------------
   Analysis of internal coordinates specified by Z-matrix 
--------------------------------------------------------------------------------
   *The nuclear repulsion energy is   51.421342545418085 a.u.
   *There are   3 degrees of freedom within the tot. symm. molecular subspace.
   *Z-matrix requests optimization of   0 coordinates.
   *The optimization is constrained.
   *The following   3 parameters can have non-zero 
    derivatives within the totally symmetric subspace:
             A    [ 3]  ROH  [ 1]  ROCL [ 2]
   *The following   0 parameters are to be optimized:

   *The following coordinates must be varied in an  unconstrained optimization.
             A    [ 3]  ROH  [ 1]  ROCL [ 2]
--------------------------------------------------------------------------------


 ----------------------------------------------------------------
         Coordinates used in calculation (QCOMP) 
 ----------------------------------------------------------------
 Z-matrix   Atomic            Coordinates (in bohr)
  Symbol    Number           X              Y              Z
 ----------------------------------------------------------------
     O         8        -2.12900359     0.11827324     0.00000000
     H         1        -2.60644102    -1.63191196    -0.00000000
     CL       17         1.04893539    -0.00706596    -0.00000000
 ----------------------------------------------------------------
 
   Interatomic distance matrix (Angstroms) 
 
                 O             H             CL   
                [ 1]        [ 2]        [ 3]
  O    [ 1]     0.00000
  H    [ 2]     0.96000     0.00000
  CL   [ 3]     1.68300     2.11683     0.00000
 rotcon2
   Rotational constants (in cm-1): 
         20.6909752034             0.5109414749             0.4986283810
   Rotational constants (in MHz): 
     620299.9183677230         15317.6422116400         14948.5048915352
  ECPDATA file not present.   Using default ECPDATA. 
  There are  157 basis functions.
 @CHECKOUT-I, Total execution time (CPU/WALL):        0.14/       0.19 seconds.
--executable xjoda finished with status     0 in        0.22 seconds (walltime).
 --invoking executable--
/home/asmola/.local/bin/xvmol
 SERIAL VERSION OF MOLECULE STARTED
********************************************************************************
                    INPUT FROM MOL FILE
********************************************************************************
INTGRL        1    0    1    0    0    0    0    0    0                         
         *** CFOUR Program System (Release V0.1) ***                            
Hypochlorous acid higher-order corrections                                      
    3    1 Z          0.10E-08              0    0                              
   9999.00      3.00                                                            
          8.00000000    1    4    1    1    1    1                              
O #1  -2.129003589923529   0.118273239213443   0.000000000000000                
   13    7                                                                      
   15330.0000000000       5.080000000000000E-004 -1.150000000000000E-004        
  0.000000000000000E+000  0.000000000000000E+000  0.000000000000000E+000        
  0.000000000000000E+000  0.000000000000000E+000                                
   2299.00000000000       3.929000000000000E-003 -8.950000000000000E-004        
  0.000000000000000E+000  0.000000000000000E+000  0.000000000000000E+000        
  0.000000000000000E+000  0.000000000000000E+000                                
   522.400000000000       2.024300000000000E-002 -4.636000000000000E-003        
  0.000000000000000E+000  0.000000000000000E+000  0.000000000000000E+000        
  0.000000000000000E+000  0.000000000000000E+000                                
   147.300000000000       7.918100000000000E-002 -1.872400000000000E-002        
  0.000000000000000E+000  0.000000000000000E+000  0.000000000000000E+000        
  0.000000000000000E+000  0.000000000000000E+000                                
   47.5500000000000       0.230687000000000      -5.846300000000000E-002        
  0.000000000000000E+000  0.000000000000000E+000  0.000000000000000E+000        
  0.000000000000000E+000  0.000000000000000E+000                                
   16.7600000000000       0.433118000000000      -0.136463000000000             
  0.000000000000000E+000  0.000000000000000E+000  0.000000000000000E+000        
  0.000000000000000E+000  0.000000000000000E+000                                
   6.20700000000000       0.350260000000000      -0.175740000000000             
  0.000000000000000E+000  0.000000000000000E+000  0.000000000000000E+000        
  0.000000000000000E+000  0.000000000000000E+000                                
   1.75200000000000       4.272800000000000E-002  0.160934000000000             
   1.00000000000000       0.000000000000000E+000  0.000000000000000E+000        
  0.000000000000000E+000  0.000000000000000E+000                                
  0.688200000000000      -8.154000000000000E-003  0.603418000000000             
  0.000000000000000E+000  0.000000000000000E+000  0.000000000000000E+000        
  0.000000000000000E+000  0.000000000000000E+000                                
  0.238400000000000       2.381000000000000E-003  0.378765000000000             
  0.000000000000000E+000   1.00000000000000       0.000000000000000E+000        
  0.000000000000000E+000  0.000000000000000E+000                                
   7.84500000000000       0.000000000000000E+000  0.000000000000000E+000        
  0.000000000000000E+000  0.000000000000000E+000   1.00000000000000             
  0.000000000000000E+000  0.000000000000000E+000                                
   21.0320000000000       0.000000000000000E+000  0.000000000000000E+000        
  0.000000000000000E+000  0.000000000000000E+000  0.000000000000000E+000        
   1.00000000000000       0.000000000000000E+000                                
  7.376000000000001E-002  0.000000000000000E+000  0.000000000000000E+000        
  0.000000000000000E+000  0.000000000000000E+000  0.000000000000000E+000        
  0.000000000000000E+000   1.00000000000000                                     
    8    6                                                                      
   34.4600000000000       1.592800000000000E-002  0.000000000000000E+000        
  0.000000000000000E+000  0.000000000000000E+000  0.000000000000000E+000        
  0.000000000000000E+000                                                        
   7.74900000000000       9.974000000000000E-002  0.000000000000000E+000        
  0.000000000000000E+000  0.000000000000000E+000  0.000000000000000E+000        
  0.000000000000000E+000                                                        
   2.28000000000000       0.310492000000000       0.000000000000000E+000        
  0.000000000000000E+000  0.000000000000000E+000  0.000000000000000E+000        
  0.000000000000000E+000                                                        
  0.715600000000000       0.491026000000000        1.00000000000000             
  0.000000000000000E+000  0.000000000000000E+000  0.000000000000000E+000        
  0.000000000000000E+000                                                        
  0.214000000000000       0.336337000000000       0.000000000000000E+000        
   1.00000000000000       0.000000000000000E+000  0.000000000000000E+000        
  0.000000000000000E+000                                                        
   15.1590000000000       0.000000000000000E+000  0.000000000000000E+000        
  0.000000000000000E+000   1.00000000000000       0.000000000000000E+000        
  0.000000000000000E+000                                                        
   57.4370000000000       0.000000000000000E+000  0.000000000000000E+000        
  0.000000000000000E+000  0.000000000000000E+000   1.00000000000000             
  0.000000000000000E+000                                                        
  5.974000000000000E-002  0.000000000000000E+000  0.000000000000000E+000        
  0.000000000000000E+000  0.000000000000000E+000  0.000000000000000E+000        
   1.00000000000000                                                             
    4    4                                                                      
   2.31400000000000        1.00000000000000       0.000000000000000E+000        
  0.000000000000000E+000  0.000000000000000E+000                                
  0.645000000000000       0.000000000000000E+000   1.00000000000000             
  0.000000000000000E+000  0.000000000000000E+000                                
   15.8580000000000       0.000000000000000E+000  0.000000000000000E+000        
   1.00000000000000       0.000000000000000E+000                                
  0.214000000000000       0.000000000000000E+000  0.000000000000000E+000        
  0.000000000000000E+000   1.00000000000000                                     
    2    2                                                                      
   1.42800000000000        1.00000000000000       0.000000000000000E+000        
  0.500000000000000       0.000000000000000E+000   1.00000000000000             
          1.00000000    1    3    1    1    1                                   
H #2  -2.606441018138384  -1.631911958226462  -0.000000000000002                
    6    4                                                                      
   33.8700000000000       6.068000000000000E-003  0.000000000000000E+000        
  0.000000000000000E+000  0.000000000000000E+000                                
   5.09500000000000       4.530800000000000E-002  0.000000000000000E+000        
  0.000000000000000E+000  0.000000000000000E+000                                
   1.15900000000000       0.202822000000000       0.000000000000000E+000        
  0.000000000000000E+000  0.000000000000000E+000                                
  0.325800000000000       0.503903000000000        1.00000000000000             
  0.000000000000000E+000  0.000000000000000E+000                                
  0.102700000000000       0.383421000000000       0.000000000000000E+000        
   1.00000000000000       0.000000000000000E+000                                
  2.526000000000000E-002  0.000000000000000E+000  0.000000000000000E+000        
  0.000000000000000E+000   1.00000000000000                                     
    3    3                                                                      
   1.40700000000000        1.00000000000000       0.000000000000000E+000        
  0.000000000000000E+000                                                        
  0.388000000000000       0.000000000000000E+000   1.00000000000000             
  0.000000000000000E+000                                                        
  0.102000000000000       0.000000000000000E+000  0.000000000000000E+000        
   1.00000000000000                                                             
    2    2                                                                      
   1.05700000000000        1.00000000000000       0.000000000000000E+000        
  0.247000000000000       0.000000000000000E+000   1.00000000000000             
         17.00000000    1    4    1    1    1    1                              
CL#3   1.048935390325044  -0.007065963524382  -0.000000000000000                
   18    8                                                                      
   456100.000000000       4.930000000000000E-005 -1.380000000000000E-005        
  4.200000000000000E-006  0.000000000000000E+000  0.000000000000000E+000        
  0.000000000000000E+000  0.000000000000000E+000  0.000000000000000E+000        
   68330.0000000000       3.830000000000000E-004 -1.073000000000000E-004        
  3.240000000000000E-005  0.000000000000000E+000  0.000000000000000E+000        
  0.000000000000000E+000  0.000000000000000E+000  0.000000000000000E+000        
   15550.0000000000       2.008500000000000E-003 -5.651000000000000E-004        
  1.711000000000000E-004  0.000000000000000E+000  0.000000000000000E+000        
  0.000000000000000E+000  0.000000000000000E+000  0.000000000000000E+000        
   4405.00000000000       8.385600000000000E-003 -2.361400000000000E-003        
  7.142000000000000E-004  0.000000000000000E+000  0.000000000000000E+000        
  0.000000000000000E+000  0.000000000000000E+000  0.000000000000000E+000        
   1439.00000000000       2.947030000000000E-002 -8.458900000000000E-003        
  2.567000000000000E-003  0.000000000000000E+000  0.000000000000000E+000        
  0.000000000000000E+000  0.000000000000000E+000  0.000000000000000E+000        
   520.400000000000       8.783249999999999E-002 -2.596380000000000E-002        
  7.885500000000000E-003  0.000000000000000E+000  0.000000000000000E+000        
  0.000000000000000E+000  0.000000000000000E+000  0.000000000000000E+000        
   203.100000000000       0.211473000000000      -6.863619999999999E-002        
  2.108670000000000E-002  0.000000000000000E+000  0.000000000000000E+000        
  0.000000000000000E+000  0.000000000000000E+000  0.000000000000000E+000        
   83.9600000000000       0.365364000000000      -0.141874000000000             
  4.422640000000000E-002  0.000000000000000E+000  0.000000000000000E+000        
  0.000000000000000E+000  0.000000000000000E+000  0.000000000000000E+000        
   36.2000000000000       0.340884000000000      -0.199319000000000             
  6.516700000000000E-002  0.000000000000000E+000  0.000000000000000E+000        
  0.000000000000000E+000  0.000000000000000E+000  0.000000000000000E+000        
   15.8300000000000       0.102133000000000      -1.956620000000000E-002        
  6.030100000000000E-003  0.000000000000000E+000  0.000000000000000E+000        
  0.000000000000000E+000  0.000000000000000E+000  0.000000000000000E+000        
   6.33400000000000       3.116800000000000E-003  0.499741000000000             
 -0.206495000000000       0.000000000000000E+000  0.000000000000000E+000        
  0.000000000000000E+000  0.000000000000000E+000  0.000000000000000E+000        
   2.69400000000000       1.057500000000000E-003  0.563736000000000             
 -0.405871000000000       0.000000000000000E+000  0.000000000000000E+000        
  0.000000000000000E+000  0.000000000000000E+000  0.000000000000000E+000        
  0.976800000000000      -3.780000000000000E-004  7.903250000000001E-002        
  7.595580000000000E-002   1.00000000000000       0.000000000000000E+000        
  0.000000000000000E+000  0.000000000000000E+000  0.000000000000000E+000        
  0.431300000000000       1.561000000000000E-004 -8.350900000000000E-003        
  0.725661000000000       0.000000000000000E+000  0.000000000000000E+000        
  0.000000000000000E+000  0.000000000000000E+000  0.000000000000000E+000        
  0.162500000000000      -5.140000000000000E-005  2.324600000000000E-003        
  0.394423000000000       0.000000000000000E+000   1.00000000000000             
  0.000000000000000E+000  0.000000000000000E+000  0.000000000000000E+000        
   15.0640000000000       0.000000000000000E+000  0.000000000000000E+000        
  0.000000000000000E+000  0.000000000000000E+000  0.000000000000000E+000        
   1.00000000000000       0.000000000000000E+000  0.000000000000000E+000        
   2.87400000000000       0.000000000000000E+000  0.000000000000000E+000        
  0.000000000000000E+000  0.000000000000000E+000  0.000000000000000E+000        
  0.000000000000000E+000   1.00000000000000       0.000000000000000E+000        
  5.910000000000000E-002  0.000000000000000E+000  0.000000000000000E+000        
  0.000000000000000E+000  0.000000000000000E+000  0.000000000000000E+000        
  0.000000000000000E+000  0.000000000000000E+000   1.00000000000000             
   12    7                                                                      
   663.300000000000       2.404500000000000E-003 -6.521000000000000E-004        
  0.000000000000000E+000  0.000000000000000E+000  0.000000000000000E+000        
  0.000000000000000E+000  0.000000000000000E+000                                
   156.800000000000       1.921480000000000E-002 -5.194500000000000E-003        
  0.000000000000000E+000  0.000000000000000E+000  0.000000000000000E+000        
  0.000000000000000E+000  0.000000000000000E+000                                
   49.9800000000000       8.850970000000000E-002 -2.469380000000000E-002        
  0.000000000000000E+000  0.000000000000000E+000  0.000000000000000E+000        
  0.000000000000000E+000  0.000000000000000E+000                                
   18.4200000000000       0.256020000000000      -7.281670000000000E-002        
  0.000000000000000E+000  0.000000000000000E+000  0.000000000000000E+000        
  0.000000000000000E+000  0.000000000000000E+000                                
   7.24000000000000       0.436927000000000      -0.134030000000000             
  0.000000000000000E+000  0.000000000000000E+000  0.000000000000000E+000        
  0.000000000000000E+000  0.000000000000000E+000                                
   2.92200000000000       0.350334000000000      -9.477420000000000E-002        
  0.000000000000000E+000  0.000000000000000E+000  0.000000000000000E+000        
  0.000000000000000E+000  0.000000000000000E+000                                
   1.02200000000000       5.854950000000000E-002  0.262289000000000             
   1.00000000000000       0.000000000000000E+000  0.000000000000000E+000        
  0.000000000000000E+000  0.000000000000000E+000                                
  0.381800000000000      -4.584200000000000E-003  0.564667000000000             
  0.000000000000000E+000  0.000000000000000E+000  0.000000000000000E+000        
  0.000000000000000E+000  0.000000000000000E+000                                
  0.130100000000000       2.269700000000000E-003  0.341250000000000             
  0.000000000000000E+000   1.00000000000000       0.000000000000000E+000        
  0.000000000000000E+000  0.000000000000000E+000                                
   9.48000000000000       0.000000000000000E+000  0.000000000000000E+000        
  0.000000000000000E+000  0.000000000000000E+000   1.00000000000000             
  0.000000000000000E+000  0.000000000000000E+000                                
   3.66800000000000       0.000000000000000E+000  0.000000000000000E+000        
  0.000000000000000E+000  0.000000000000000E+000  0.000000000000000E+000        
   1.00000000000000       0.000000000000000E+000                                
  4.190000000000000E-002  0.000000000000000E+000  0.000000000000000E+000        
  0.000000000000000E+000  0.000000000000000E+000  0.000000000000000E+000        
  0.000000000000000E+000   1.00000000000000                                     
    5    5                                                                      
   1.04600000000000        1.00000000000000       0.000000000000000E+000        
  0.000000000000000E+000  0.000000000000000E+000  0.000000000000000E+000        
  0.344000000000000       0.000000000000000E+000   1.00000000000000             
  0.000000000000000E+000  0.000000000000000E+000  0.000000000000000E+000        
   17.9570000000000       0.000000000000000E+000  0.000000000000000E+000        
   1.00000000000000       0.000000000000000E+000  0.000000000000000E+000        
   5.76000000000000       0.000000000000000E+000  0.000000000000000E+000        
  0.000000000000000E+000   1.00000000000000       0.000000000000000E+000        
  0.135000000000000       0.000000000000000E+000  0.000000000000000E+000        
  0.000000000000000E+000  0.000000000000000E+000   1.00000000000000             
    3    3                                                                      
  0.706000000000000        1.00000000000000       0.000000000000000E+000        
  0.000000000000000E+000                                                        
   11.7790000000000       0.000000000000000E+000   1.00000000000000             
  0.000000000000000E+000                                                        
  0.312000000000000       0.000000000000000E+000  0.000000000000000E+000        
   1.00000000000000                                                             
FINISH                                                                          
 
********************************************************************************
 ONE- AND TWO-ELECTRON INTEGRALS OVER SYMMETRY-ADAPTED AOS ARE CALCULATED.

  SPHERICAL HARMONICS ARE USED.
  
  INTEGRALS LESS THAN  0.10E-13 ARE NEGLECTED.

  NUCLEAR REPULSION ENERGY :   51.4213425454 A.U.
  @MOLECU-I, ONE ELECTRON INTEGRALS (CPU/WALL):        0.04/       0.04 SECONDS.
  @TWOEL-I,   14247357 INTEGRALS OF SYMMETRY TYPE  I I I I
  @TWOEL-I,   13489212 INTEGRALS OF SYMMETRY TYPE  I J I J
  @TWOEL-I,    6955182 INTEGRALS OF SYMMETRY TYPE  I I J J
  @TWOEL-I, TOTAL NUMBER OF 2-E INTEGRALS   34691751.
  @MOLECU-I, TWO ELECTRON INTEGRALS (CPU/WALL):       55.01/      10.17 SECONDS.
 @CHECKOUT-I, Total execution time (CPU/WALL):       55.06/      10.24 seconds.

Running with 12 threads/proc

--executable xvmol finished with status     0 in       10.28 seconds (walltime).
 --invoking executable--
/home/asmola/.local/bin/xvmol2ja
 @GETMEM-I,  Allocated    3814 MB of main memory.
 @CHECKOUT-I, Total execution time (CPU/WALL):        0.07/       0.02 seconds.
--executable xvmol2ja finished with status     0 in        0.06 seconds (walltime).
 --invoking executable--
/home/asmola/.local/bin/xvscf
  There are  157 functions in the AO basis.

  There are 2 irreducible representations.

       Irrep        # of functions
         1                104
         2                 53


  Parameters for SCF calculation: 
        SCF reference function:  RHF  
  Maximum number of iterations:  150
     Full symmetry point group: C s 
     Computational point group: C s 
        Initial density matrix: MOREAD                 
     SCF convergence tolerance: 10**(-11)
  DIIS convergence acceleration:  ON
          Latest start for DIIS:   8
                     DIIS order:   6

  Memory information:    1209746 words required.
  Fock matrices are constructed from AO integral file.
 @GETMEM-I,  Allocated       9 MB of main memory.
  Initialization and symmetry analysis required      0.001 seconds.

  @INITGES-I, Occupancies from core Hamiltonian:

          Alpha population by irrep:  10    3
           Beta population by irrep:  10    3


 total no. of electrons in initial guess :  0.000000000000000E+000
  --------------------------------------------------------------------
  Iteration         Total Energy            Largest Density Difference
  --------------------------------------------------------------------
       0            51.421342545418092              0.0000000000D+00
   current occupation vector 
    10  3
    10  3
       1          -365.229536213936910              0.1325877349D+02
   current occupation vector 
    10  3
    10  3
       2          -338.878880162445000              0.1324215883D+02
   current occupation vector 
    10  3
    10  3
       3          -421.092225189137139              0.1075278520D+02
   current occupation vector 
    10  3
    10  3
       4          -336.397016625423817              0.1075359701D+02
   current occupation vector 
    10  3
    10  3
       5          -420.795178486528414              0.1067760164D+02
   current occupation vector 
    10  3
    10  3
       6          -336.183512355060486              0.1067709057D+02
   current occupation vector 
    10  3
    10  3
       7          -420.759575818084897              0.1066765145D+02
   current occupation vector 
    10  3
    10  3
       8          -336.157754432743161              0.1066758712D+02
   current occupation vector 
    10  3
    10  3
       9          -446.510232568852416              0.8197905917D+01
   current occupation vector 
    10  3
    10  3
      10          -464.276280170933148              0.1948414036D+01
   current occupation vector 
    10  3
    10  3
      11          -475.908744913622797              0.1434324518D+01
   current occupation vector 
    10  3
    10  3
      12          -482.028512326820362              0.7632594338D+00
   current occupation vector 
    10  3
    10  3
      13          -482.429076510776838              0.5152719318D-01
   current occupation vector 
    10  3
    10  3
      14          -487.833116793005672              0.6753349189D+00
   current occupation vector 
    10  3
    10  3
      15          -506.727325141623226              0.7678765550D+01
   current occupation vector 
    10  3
    10  3
      16          -523.938567541207135              0.7677164111D+01
   current occupation vector 
    11  2
    11  2
      17          -527.183310504992733              0.4271588532D+01
   current occupation vector 
    11  2
    11  2
      18          -533.338661633686002              0.3246352460D+01
   current occupation vector 
    10  3
    10  3
      19          -534.462516483164109              0.7612181648D+00
   current occupation vector 
    10  3
    10  3
      20          -534.876839650507236              0.4814377664D+00
   current occupation vector 
    10  3
    10  3
      21          -534.921387486013259              0.2468983520D+00
   current occupation vector 
    10  3
    10  3
      22          -534.923855385714432              0.4414115899D-01
   current occupation vector 
    10  3
    10  3
      23          -534.924528511846120              0.3410857556D-01
   current occupation vector 
    10  3
    10  3
      24          -534.924625085363118              0.1246862529D-01
   current occupation vector 
    10  3
    10  3
      25          -534.924639882646147              0.5477975289D-02
   current occupation vector 
    10  3
    10  3
      26          -534.924641217102362              0.1394957223D-02
   current occupation vector 
    10  3
    10  3
      27          -534.924641410592358              0.5989925507D-03
   current occupation vector 
    10  3
    10  3
      28          -534.924641448881289              0.3470302460D-03
   current occupation vector 
    10  3
    10  3
      29          -534.924641449875594              0.5315237506D-04
   current occupation vector 
    10  3
    10  3
      30          -534.924641449947444              0.1518297405D-04
   current occupation vector 
    10  3
    10  3
      31          -534.924641449941760              0.1720393002D-05
   current occupation vector 
    10  3
    10  3
      32          -534.924641449941419              0.9727173921D-06
   current occupation vector 
    10  3
    10  3
      33          -534.924641449942555              0.4631097515D-06
   current occupation vector 
    10  3
    10  3
      34          -534.924641449942555              0.1227769344D-06
   current occupation vector 
    10  3
    10  3
      35          -534.924641449946648              0.8458104692D-07
   current occupation vector 
    10  3
    10  3
      36          -534.924641449944374              0.3364473650D-07
   current occupation vector 
    10  3
    10  3
      37          -534.924641449943806              0.1348695604D-07
   current occupation vector 
    10  3
    10  3
      38          -534.924641449949149              0.3703280224D-08
   current occupation vector 
    10  3
    10  3
      39          -534.924641449947785              0.1750031467D-08
   current occupation vector 
    10  3
    10  3
      40          -534.924641449947103              0.1400804334D-09
   current occupation vector 
    10  3
    10  3
      41          -534.924641449945170              0.1287614459D-09
   current occupation vector 
    10  3
    10  3
      42          -534.924641449946989              0.4326508596D-10
   current occupation vector 
    10  3
    10  3
      43          -534.924641449946193              0.2766820106D-10
   current occupation vector 
    10  3
    10  3
      44          -534.924641449945057              0.5528771885D-10
   current occupation vector 
    10  3
    10  3
      45          -534.924641449945739              0.1659741788D-10
   current occupation vector 
    10  3
    10  3
      46          -534.924641449946193              0.7293654569D-10
   current occupation vector 
    10  3
    10  3
      47          -534.924641449945398              0.7902017929D-10
   current occupation vector 
    10  3
    10  3
      48          -534.924641449943124              0.2017251921D-09
   current occupation vector 
    10  3
    10  3
      49          -534.924641449945966              0.2069647786D-09
   current occupation vector 
    10  3
    10  3
      50          -534.924641449944488              0.3198083465D-10
   current occupation vector 
    10  3
    10  3
      51          -534.924641449944716              0.4445316337D-10
   current occupation vector 
    10  3
    10  3
      52          -534.924641449944488              0.4856052366D-10
   current occupation vector 
    10  3
    10  3
      53          -534.924641449947103              0.4168239365D-10
   current occupation vector 
    10  3
    10  3
      54          -534.924641449945966              0.3760492612D-10
   current occupation vector 
    10  3
    10  3
      55          -534.924641449944488              0.1064037747D-10
   current occupation vector 
    10  3
    10  3
      56          -534.924641449948922              0.2701244783D-10
   current occupation vector 
    10  3
    10  3
      57          -534.924641449947899              0.2466260529D-10
   current occupation vector 
    10  3
    10  3
      58          -534.924641449949036              0.2820882417D-10
   current occupation vector 
    10  3
    10  3

  SCF has converged.

 Density matrix saved to file den.dat
 total electron number:   26.0000000000001     
     E(SCF)=      -534.924641449948695              0.5019965346D-11

  Eigenvector printing suppressed.

 @PUTMOS-I, Writing converged MOs to NEWMOS. 
 @PUTMOS-I, Symmetry   1 Full Blocks 26 Partial Blocksize   0
 @PUTMOS-I, Symmetry   2 Full Blocks 13 Partial Blocksize   1
 @PUTFOCK-I, Writing converged Fock matrix to NEWFOCK. 
 @PUTFOCK-I, Symmetry   1 Full Blocks 26 Partial Blocksize   0
 @PUTFOCK-I, Symmetry   2 Full Blocks 13 Partial Blocksize   1


 
  ORBITAL EIGENVALUES (ALPHA)  (1H = 27.2113834 eV)

       MO #        E(hartree)               E(eV)           FULLSYM    COMPSYM
       ----   --------------------   --------------------   -------   ---------
    1     1        -104.8908946416       -2854.2263492603     A'        A'  (1)
    2     2         -20.6423245715        -561.7062081819     A'        A'  (1)
    3     3         -10.6109806036        -288.7394614536     A'        A'  (1)
    4     4          -8.0777145201        -219.8057868012     A'        A'  (1)
    5     5          -8.0753685522        -219.7419497713     A'        A'  (1)
    6   105          -8.0752143024        -219.7377524211     A''       A'' (2)
    7     6          -1.4173968333         -38.5693286604     A'        A'  (1)
    8     7          -1.0620270011         -28.8992239072     A'        A'  (1)
    9     8          -0.7245651469         -19.7164200093     A'        A'  (1)
   10   106          -0.6157874287         -16.7564278150     A''       A'' (2)
   11     9          -0.6070796404         -16.5194768481     A'        A'  (1)
   12    10          -0.4684320452         -12.7466839798     A'        A'  (1)
   13   107          -0.4436720498         -12.0729302516     A''       A'' (2)
  +++++++++++++++++++++++++++++++++++++++++++++++++++++++++++++++++++++++++++++
   14    11           0.0287431973           0.7821421626     A'        A'  (1)
   15    12           0.0625118896           1.7010349955     A'        A'  (1)
   16    13           0.1096173204           2.9828389335     A'        A'  (1)
   17   108           0.1157225036           3.1489694141     A''       A'' (2)
   18    14           0.1406594397           3.8275379421     A'        A'  (1)
   19    15           0.1587037612           4.3185488939     A'        A'  (1)
   20    16           0.1727304173           4.7002336101     A'        A'  (1)
   21    17           0.1768356007           4.8119413296     A'        A'  (1)
   22   109           0.1882610729           5.1228442340     A''       A'' (2)
   23    18           0.2427851234           6.6065190767     A'        A'  (1)
   24   110           0.2580019179           7.0205891060     A''       A'' (2)
   25    19           0.3095062722           8.4220938373     A'        A'  (1)
   26    20           0.3212134067           8.7406611636     A'        A'  (1)
   27   111           0.3860655756          10.5053783952     A''       A'' (2)
   28    21           0.3914701153          10.6524433968     A'        A'  (1)
   29   112           0.4191299950          11.4051069874     A''       A'' (2)
   30    22           0.4237453824          11.5306980657     A'        A'  (1)
   31    23           0.4458423860          12.1319881009     A'        A'  (1)
   32    24           0.5023235536          13.6689188069     A'        A'  (1)
   33    25           0.6031084709          16.4114158323     A'        A'  (1)
   34   113           0.6136371924          16.6979169122     A''       A'' (2)
   35    26           0.6828450839          18.5811593799     A'        A'  (1)
   36    27           0.7015378336          19.0898149609     A'        A'  (1)
   37   114           0.7099866012          19.3197176154     A''       A'' (2)
   38    28           0.7198170271          19.5872171019     A'        A'  (1)
   39   115           0.7700783401          20.9548969608     A''       A'' (2)
   40    29           0.7825612428          21.2945740127     A'        A'  (1)
   41    30           0.8743923736          23.7934261189     A'        A'  (1)
   42   116           0.8909352288          24.2435800961     A''       A'' (2)
   43    31           0.8916737628          24.2636766280     A'        A'  (1)
   44   117           0.9024581091          24.5571336078     A''       A'' (2)
   45    32           0.9102094909          24.7680594323     A'        A'  (1)
   46   118           0.9159755312          24.9249613652     A''       A'' (2)
   47    33           0.9303982834          25.3174244033     A'        A'  (1)
   48    34           0.9608821304          26.1469320519     A'        A'  (1)
   49    35           1.0004082566          27.2224926262     A'        A'  (1)
   50   119           1.0063340247          27.3837409758     A''       A'' (2)
   51    36           1.0135875050          27.5811182089     A'        A'  (1)
   52    37           1.1154435752          30.3527627847     A'        A'  (1)
   53   120           1.1230957214          30.5609882694     A''       A'' (2)
   54   121           1.2224402795          33.2642911284     A''       A'' (2)
   55    38           1.2350153826          33.6064770795     A'        A'  (1)
   56    39           1.2848258774          34.9618895511     A'        A'  (1)
   57    40           1.3438055552          36.5668081765     A'        A'  (1)
   58    41           1.3810866616          37.5812786571     A'        A'  (1)
   59   122           1.4218342090          38.6900757933     A''       A'' (2)
   60   123           1.5101616860          41.0935886346     A''       A'' (2)
   61   124           1.5371187648          41.8271280391     A''       A'' (2)
   62    42           1.5474798840          42.1090684261     A'        A'  (1)
   63    43           1.6752675812          45.5863484504     A'        A'  (1)
   64    44           1.7201755397          46.8083561265     A'        A'  (1)
   65    45           1.8169639992          49.4421040070     A'        A'  (1)
   66    46           1.9888422864          54.1191499766     A'        A'  (1)
   67   125           2.1779134675          59.2640383775     A''       A'' (2)
   68    47           2.2476225154          61.1609180053     A'        A'  (1)
   69   126           2.2538711274          61.3309513832     A''       A'' (2)
   70    48           2.2942324259          62.4292381498     A'        A'  (1)
   71   127           2.3264352766          63.3055222681     A''       A'' (2)
   72    49           2.3267191076          63.3132457012     A'        A'  (1)
   73    50           2.3729290717          64.5706827516     A'        A'  (1)
   74    51           2.4221680673          65.9105439375     A'        A'  (1)
   75   128           2.4540409910          66.7778502848     A''       A'' (2)
   76    52           2.4670283287          67.1312537121     A'        A'  (1)
   77   129           2.4783576137          67.4395392282     A''       A'' (2)
   78   130           2.4811665780          67.5159750342     A''       A'' (2)
   79    53           2.4990254349          68.0019392367     A'        A'  (1)
   80    54           2.5274518898          68.7754623982     A'        A'  (1)
   81   131           2.7436339740          74.6580759754     A''       A'' (2)
   82    55           2.7538559130          74.9362290783     A'        A'  (1)
   83   132           2.8923871373          78.7058553349     A''       A'' (2)
   84    56           2.9456026565          80.1539232296     A'        A'  (1)
   85    57           2.9793202558          81.0714257521     A'        A'  (1)
   86   133           3.0558064706          83.1527214674     A''       A'' (2)
   87    58           3.0688397685          83.5073755333     A'        A'  (1)
   88    59           3.1265727387          85.0783695199     A'        A'  (1)
   89   134           3.1386781683          85.4077750066     A''       A'' (2)
   90    60           3.2510140018          88.4645884428     A'        A'  (1)
   91    61           3.3400676057          90.8878602015     A'        A'  (1)
   92   135           3.3673807175          91.6310877579     A''       A'' (2)
   93    62           3.4679213425          94.3669372522     A'        A'  (1)
   94    63           3.7313571601         101.5353902868     A'        A'  (1)
   95    64           3.8338943974         104.3255703632     A'        A'  (1)
   96   136           4.0881695103         111.2447479493     A''       A'' (2)
   97   137           4.1354352353         112.5309137149     A''       A'' (2)
   98   138           4.3374161122         118.0270927936     A''       A'' (2)
   99    65           4.3553763173         118.5158148227     A'        A'  (1)
  100    66           4.5690653027         124.3305877323     A'        A'  (1)
  101    67           4.6911927044         127.6538432839     A'        A'  (1)
  102    68           4.8499147895         131.9728907938     A'        A'  (1)
  103    69           5.1127946141         139.1262144901     A'        A'  (1)
  104   139           5.2688619401         143.3730223346     A''       A'' (2)
  105    70           5.5011239056         149.6931917266     A'        A'  (1)
  106    71           5.8114005116         158.1362474126     A'        A'  (1)
  107    72           6.2919763972         171.2133820882     A'        A'  (1)
  108   140           6.6501829274         180.9606773176     A''       A'' (2)
  109    73           6.7124936113         182.6562372267     A'        A'  (1)
  110   141           6.7367448919         183.3161481208     A''       A'' (2)
  111    74           6.7707345874         184.2410547574     A'        A'  (1)
  112   142           7.1441265737         194.4015672563     A''       A'' (2)
  113   143           7.1894596244         195.6351422786     A''       A'' (2)
  114    75           7.2339015135         196.8444675615     A'        A'  (1)
  115   144           7.2560059532         197.4459599443     A''       A'' (2)
  116    76           7.2678664547         197.7687005978     A'        A'  (1)
  117    77           7.5538742201         205.5513675589     A'        A'  (1)
  118    78           7.8386730475         213.3011376428     A'        A'  (1)
  119    79           8.7793231829         238.8975291220     A'        A'  (1)
  120   145          10.3493128747         281.6191205608     A''       A'' (2)
  121    80          10.3496432152         281.6281095816     A'        A'  (1)
  122   146          10.3852531175         282.5971042865     A''       A'' (2)
  123    81          10.4495776791         284.3474645937     A'        A'  (1)
  124    82          10.6260874118         289.1505386047     A'        A'  (1)
  125   147          12.6784435808         344.9979891912     A''       A'' (2)
  126    83          12.7365467376         346.5790564695     A'        A'  (1)
  127    84          13.2202140873         359.7403141595     A'        A'  (1)
  128    85          18.2740695218         497.2627120365     A'        A'  (1)
  129   148          26.1962397986         712.8359247978     A''       A'' (2)
  130    86          26.6309942248         724.6661941754     A'        A'  (1)
  131    87          27.2212418398         740.7276483263     A'        A'  (1)
  132    88          29.1442538675         793.0554658955     A'        A'  (1)
  133    89          36.8951662952        1003.9685156660     A'        A'  (1)
  134   149          36.8952817164        1003.9716564368     A''       A'' (2)
  135   150          36.8952981935        1003.9721047999     A''       A'' (2)
  136    90          36.9004591549        1004.1125417001     A'        A'  (1)
  137   151          36.9041245217        1004.2122814012     A''       A'' (2)
  138    91          36.9044008309        1004.2198001577     A'        A'  (1)
  139    92          36.9083793514        1004.3280612048     A'        A'  (1)
  140   152          43.9157075830        1195.0071563232     A''       A'' (2)
  141    93          43.9513813693        1195.9778893999     A'        A'  (1)
  142   153          43.9604176892        1196.2237801649     A''       A'' (2)
  143    94          44.0881293035        1199.6989898671     A'        A'  (1)
  144    95          44.2554380799        1204.2516931283     A'        A'  (1)
  145   154          46.4825156504        1264.8535547594     A''       A'' (2)
  146    96          46.4826370780        1264.8568589712     A'        A'  (1)
  147   155          46.5059877287        1265.4922624823     A''       A'' (2)
  148    97          46.5395348007        1266.4051247201     A'        A'  (1)
  149    98          46.6246089738        1268.7201106604     A'        A'  (1)
  150   156          55.0181864009        1497.1209641283     A''       A'' (2)
  151    99          55.0828576478        1498.8807582214     A'        A'  (1)
  152   100          55.6465010176        1514.2182740588     A'        A'  (1)
  153   101         103.8657643543        2826.3311359786     A'        A'  (1)
  154   157         138.3274479517        3764.0812209559     A''       A'' (2)
  155   102         138.6365754322        3772.4930073489     A'        A'  (1)
  156   103         139.1300433695        3785.9209525852     A'        A'  (1)
  157   104         149.9670827704        4080.8117866458     A'        A'  (1)


  VSCF finished.

 @CHECKOUT-I, Total execution time (CPU/WALL):       96.00/      18.24 seconds.
--executable xvscf finished with status     0 in       18.27 seconds (walltime).
 --invoking executable--
/home/asmola/.local/bin/xvtran
 @GETMEM-I,  Allocated    3814 MB of main memory.
  Full RHF integral transformation
  Transformation of IIII integrals :
  1 pass through the AO integral file was required.
    14247357 AO integrals were read.
    15933126 MO integrals were written to HF2.
  Transformation of IIJJ integrals :
  1 pass through the AO integral file was required.
     6955182 AO integrals were read.
     7813260 MO integrals were written to HF2.
  Transformation of IJIJ integrals :
  1 pass through the AO integral file was required.
    13489212 AO integrals were read.
    15193828 MO integrals were written to HF2.
  Summary of active molecular orbitals: 
------------------------------------------------------------------------
 
  Index      Eigenvalue    Symmetry    Index      Eigenvalue    Symmetry
------------------------------------------------------------------------
     1      -104.8908946        1        80         7.5538742        1
     2       -20.6423246        1        81         7.8386730        1
     3       -10.6109806        1        82         8.7793232        1
     4        -8.0777145        1        83        10.3496432        1
     5        -8.0753686        1        84        10.4495777        1
     6        -1.4173968        1        85        10.6260874        1
     7        -1.0620270        1        86        12.7365467        1
     8        -0.7245651        1        87        13.2202141        1
     9        -0.6070796        1        88        18.2740695        1
    10        -0.4684320        1        89        26.6309942        1
    11        -8.0752143        2        90        27.2212418        1
    12        -0.6157874        2        91        29.1442539        1
    13        -0.4436720        2        92        36.8951663        1
    14         0.0287432        1        93        36.9004592        1
    15         0.0625119        1        94        36.9044008        1
    16         0.1096173        1        95        36.9083794        1
    17         0.1406594        1        96        43.9513814        1
    18         0.1587038        1        97        44.0881293        1
    19         0.1727304        1        98        44.2554381        1
    20         0.1768356        1        99        46.4826371        1
    21         0.2427851        1       100        46.5395348        1
    22         0.3095063        1       101        46.6246090        1
    23         0.3212134        1       102        55.0828576        1
    24         0.3914701        1       103        55.6465010        1
    25         0.4237454        1       104       103.8657644        1
    26         0.4458424        1       105       138.6365754        1
    27         0.5023236        1       106       139.1300434        1
    28         0.6031085        1       107       149.9670828        1
    29         0.6828451        1       108         0.1157225        2
    30         0.7015378        1       109         0.1882611        2
    31         0.7198170        1       110         0.2580019        2
    32         0.7825612        1       111         0.3860656        2
    33         0.8743924        1       112         0.4191300        2
    34         0.8916738        1       113         0.6136372        2
    35         0.9102095        1       114         0.7099866        2
    36         0.9303983        1       115         0.7700783        2
    37         0.9608821        1       116         0.8909352        2
    38         1.0004083        1       117         0.9024581        2
    39         1.0135875        1       118         0.9159755        2
    40         1.1154436        1       119         1.0063340        2
    41         1.2350154        1       120         1.1230957        2
    42         1.2848259        1       121         1.2224403        2
    43         1.3438056        1       122         1.4218342        2
    44         1.3810867        1       123         1.5101617        2
    45         1.5474799        1       124         1.5371188        2
    46         1.6752676        1       125         2.1779135        2
    47         1.7201755        1       126         2.2538711        2
    48         1.8169640        1       127         2.3264353        2
    49         1.9888423        1       128         2.4540410        2
    50         2.2476225        1       129         2.4783576        2
    51         2.2942324        1       130         2.4811666        2
    52         2.3267191        1       131         2.7436340        2
    53         2.3729291        1       132         2.8923871        2
    54         2.4221681        1       133         3.0558065        2
    55         2.4670283        1       134         3.1386782        2
    56         2.4990254        1       135         3.3673807        2
    57         2.5274519        1       136         4.0881695        2
    58         2.7538559        1       137         4.1354352        2
    59         2.9456027        1       138         4.3374161        2
    60         2.9793203        1       139         5.2688619        2
    61         3.0688398        1       140         6.6501829        2
    62         3.1265727        1       141         6.7367449        2
    63         3.2510140        1       142         7.1441266        2
    64         3.3400676        1       143         7.1894596        2
    65         3.4679213        1       144         7.2560060        2
    66         3.7313572        1       145        10.3493129        2
    67         3.8338944        1       146        10.3852531        2
    68         4.3553763        1       147        12.6784436        2
    69         4.5690653        1       148        26.1962398        2
    70         4.6911927        1       149        36.8952817        2
    71         4.8499148        1       150        36.8952982        2
    72         5.1127946        1       151        36.9041245        2
    73         5.5011239        1       152        43.9157076        2
    74         5.8114005        1       153        43.9604177        2
    75         6.2919764        1       154        46.4825157        2
    76         6.7124936        1       155        46.5059877        2
    77         6.7707346        1       156        55.0181864        2
    78         7.2339015        1       157       138.3274480        2
    79         7.2678665        1
------------------------------------------------------------------------
  -104.890894641552       -20.6423245714860       -10.6109806035667     
  -8.07771452006456       -8.07536855223922       -1.41739683328193     
  -1.06202700106898      -0.724565146851717      -0.607079640359207     
 -0.468432045238250       -8.07521430244983      -0.615787428688761     
 -0.443672049824502       2.874319732743816E-002  6.251188961994064E-002
  0.109617320428472       0.140659439684061       0.158703761230735     
  0.172730417303076       0.176835600705178       0.242785123402272     
  0.309506272189903       0.321213406724228       0.391470115288618     
  0.423745382444436       0.445842385982660       0.502323553562948     
  0.603108470859404       0.682845083865963       0.701537833646077     
  0.719817027085685       0.782561242831438       0.874392373555443     
  0.891673762826598       0.910209490940255       0.930398283362214     
  0.960882130376015        1.00040825657694        1.01358750503356     
   1.11544357515666        1.23501538255002        1.28482587735976     
   1.34380555516010        1.38108666158865        1.54747988395507     
   1.67526758122718        1.72017553971730        1.81696399922680     
   1.98884228637069        2.24762251541109        2.29423242589702     
   2.32671910760719        2.37292907171979        2.42216806726135     
   2.46702832874434        2.49902543494846        2.52745188979178     
   2.75385591304886        2.94560265648167        2.97932025580642     
   3.06883976848049        3.12657273866883        3.25101400183970     
   3.34006760573302        3.46792134251341        3.73135716013597     
   3.83389439741582        4.35537631734850        4.56906530273365     
   4.69119270444475        4.84991478947893        5.11279461411327     
   5.50112390561653        5.81140051161665        6.29197639720968     
   6.71249361128448        6.77073458740185        7.23390151349335     
   7.26786645466079        7.55387422011289        7.83867304750289     
   8.77932318288671        10.3496432151839        10.4495776790861     
   10.6260874118107        12.7365467376241        13.2202140872969     
   18.2740695218185        26.6309942248422        27.2212418397764     
   29.1442538675000        36.8951662952193        36.9004591549038     
   36.9044008309277        36.9083793514444        43.9513813693095     
   44.0881293035285        44.2554380799418        46.4826370779505     
   46.5395348007241        46.6246089737735        55.0828576477810     
   55.6465010176161        103.865764354289        138.636575432209     
   139.130043369468        149.967082770433       0.115722503622176     
  0.188261072901552       0.258001917901692       0.386065575599555     
  0.419129994963979       0.613637192446359       0.709986601248334     
  0.770078340112112       0.890935228823980       0.902458109051879     
  0.915975531224692        1.00633402474357        1.12309572138195     
   1.22244027947356        1.42183420903377        1.51016168603124     
   1.53711876475736        2.17791346754831        2.25387112744796     
   2.32643527664710        2.45404099097847        2.47835761368254     
   2.48116657803555        2.74363397398434        2.89238713732124     
   3.05580647058870        3.13867816829164        3.36738071750827     
   4.08816951031402        4.13543523534776        4.33741611216923     
   5.26886194013095        6.65018292739919        6.73674489187530     
   7.14412657374501        7.18945962440970        7.25600595316514     
   10.3493128747296        10.3852531175043        12.6784435807540     
   26.1962397985907        36.8952817164295        36.8952981934735     
   36.9041245216950        43.9157075829962        43.9604176891986     
   46.4825156503938        46.5059877287348        55.0181864009276     
   138.327447951652     
 @CHECKOUT-I, Total execution time (CPU/WALL):       38.94/      18.54 seconds.
--executable xvtran finished with status     0 in       18.57 seconds (walltime).
 --invoking executable--
/home/asmola/.local/bin/xintprc
 @GETMEM-I,  Allocated    3814 MB of main memory.
  @GMOIAA-I, Processing MO integrals for spin case AA.
  @GMOIAA-I, Generation of integral list completed.
                      TYPE                NUMBER
                      ----               --------
                      PPPP              27524020
                      PPPH               9932000
                      PPHH                900748
                      PHPH                491140
                      PHHH                 89950
                      HHHH                  2356

                     TOTAL              38940214

  @FORMT2-I, Second-order MP correlation energies:
            ------------------------------------------------
            E(SCF)                  =   -534.924641449949 a.u.
            E2(AA)                  =     -0.107469465247 a.u.
            E2(AB)                  =     -0.630096316631 a.u.
            E2(TOT)                 =     -0.845035247125 a.u.
            Total MP2 energy        =   -535.769676697073 a.u.
            ------------------------------------------------
   Largest T2 amplitudes for spin case AB:
       _       _                 _       _                 _       _
   i   j   a   b             i   j   a   b             i   j   a   b
-----------------------------------------------------------------------------
[  9   9  17  17]-0.02055 [  9   9  15  15]-0.02055 [  9   9  17  15] 0.01962
[  9   9  15  17] 0.01962 [ 13  13 112 112]-0.01786 [ 13  13 113 113]-0.01571
[  9   9  20  15] 0.01567 [  9   9  15  20] 0.01567 [ 13  13 116 116]-0.01549
[  8   8  25  25]-0.01490 [  9   9  20  17]-0.01454 [  9   9  17  20]-0.01454
[  9   9  20  20]-0.01438 [ 10  10  26  26]-0.01422 [  9   9  18  17] 0.01421
-----------------------------------------------------------------------------
   Norm of T2AB vector (  1799624 symmetry allowed elements):  0.3245951942.
-----------------------------------------------------------------------------
 @CHECKOUT-I, Total execution time (CPU/WALL):        5.44/       7.83 seconds.
--executable xintprc finished with status     0 in        7.86 seconds (walltime).
  calling xvcc 
 --invoking executable--
/home/asmola/.local/bin/xvcc
 @GETMEM-I,  Allocated    3814 MB of main memory.
   CCSD(T) energy will be calculated.
   The total correlation energy is -0.845035247125 a.u.
   The total correlation energy is -0.846120279536 a.u.
  Convergence information after     1 iterations: 
  Largest element of residual vector : -0.12135382E-01.
  Largest element of DIIS residual   : -0.12135382E-01.
   The total correlation energy is -0.859724848907 a.u.
  Convergence information after     2 iterations: 
  Largest element of residual vector : -0.29141338E-02.
  Largest element of DIIS residual   : -0.26781665E-02.
   The total correlation energy is -0.859634479457 a.u.
  Convergence information after     3 iterations: 
  Largest element of residual vector : -0.19270565E-02.
  Largest element of DIIS residual   : -0.11442770E-02.
   The total correlation energy is -0.860919752740 a.u.
  Convergence information after     4 iterations: 
  Largest element of residual vector : -0.25721348E-03.
  Largest element of DIIS residual   : -0.21919500E-03.
   The total correlation energy is -0.861042645806 a.u.
  Convergence information after     5 iterations: 
  Largest element of residual vector : -0.20732685E-03.
  Largest element of DIIS residual   : -0.16008604E-03.
   The total correlation energy is -0.861043156281 a.u.
  Convergence information after     6 iterations: 
  Largest element of residual vector : -0.92403917E-04.
  Largest element of DIIS residual   : -0.74586112E-04.
   The total correlation energy is -0.861044085781 a.u.
  Convergence information after     7 iterations: 
  Largest element of residual vector : -0.70172152E-04.
  Largest element of DIIS residual   : -0.51839573E-04.
   The total correlation energy is -0.861043792288 a.u.
  Convergence information after     8 iterations: 
  Largest element of residual vector : -0.34888067E-04.
  Largest element of DIIS residual   : -0.22563683E-04.
   The total correlation energy is -0.861043571112 a.u.
  Convergence information after     9 iterations: 
  Largest element of residual vector : -0.18998313E-04.
  Largest element of DIIS residual   : -0.10904446E-04.
   The total correlation energy is -0.861044326140 a.u.
  Convergence information after    10 iterations: 
  Largest element of residual vector : -0.88266609E-05.
  Largest element of DIIS residual   : -0.43917558E-05.
   The total correlation energy is -0.861044552701 a.u.
  Convergence information after    11 iterations: 
  Largest element of residual vector : -0.26657887E-05.
  Largest element of DIIS residual   :  0.15921019E-05.
   The total correlation energy is -0.861044695400 a.u.
  Convergence information after    12 iterations: 
  Largest element of residual vector : -0.14940034E-05.
  Largest element of DIIS residual   : -0.69842762E-06.
   The total correlation energy is -0.861044751365 a.u.
  Convergence information after    13 iterations: 
  Largest element of residual vector : -0.38712517E-06.
  Largest element of DIIS residual   : -0.37674782E-06.
   The total correlation energy is -0.861044758312 a.u.
  Convergence information after    14 iterations: 
  Largest element of residual vector : -0.26708075E-06.
  Largest element of DIIS residual   : -0.18466943E-06.
   The total correlation energy is -0.861044760359 a.u.
  Convergence information after    15 iterations: 
  Largest element of residual vector : -0.11958732E-06.
  Largest element of DIIS residual   :  0.10098503E-06.
   The total correlation energy is -0.861044760543 a.u.
  Convergence information after    16 iterations: 
  Largest element of residual vector : -0.88371320E-07.
  Largest element of DIIS residual   : -0.47358335E-07.
   The total correlation energy is -0.861044761111 a.u.
  Convergence information after    17 iterations: 
  Largest element of residual vector : -0.45434317E-07.
  Largest element of DIIS residual   : -0.29164752E-07.
   The total correlation energy is -0.861044761126 a.u.
  Convergence information after    18 iterations: 
  Largest element of residual vector : -0.20153218E-07.
  Largest element of DIIS residual   : -0.12631615E-07.
   The total correlation energy is -0.861044761343 a.u.
  Convergence information after    19 iterations: 
  Largest element of residual vector : -0.11913619E-07.
  Largest element of DIIS residual   : -0.61170525E-08.
   The total correlation energy is -0.861044761485 a.u.
  Convergence information after    20 iterations: 
  Largest element of residual vector : -0.31395462E-08.
  Largest element of DIIS residual   : -0.22466772E-08.
   The total correlation energy is -0.861044761526 a.u.
  Convergence information after    21 iterations: 
  Largest element of residual vector : -0.20169622E-08.
  Largest element of DIIS residual   : -0.12764608E-08.
   The total correlation energy is -0.861044761561 a.u.
  Convergence information after    22 iterations: 
  Largest element of residual vector : -0.80842874E-09.
  Largest element of DIIS residual   : -0.67781719E-09.
   The total correlation energy is -0.861044761559 a.u.
  Convergence information after    23 iterations: 
  Largest element of residual vector : -0.52906836E-09.
  Largest element of DIIS residual   :  0.32074522E-09.
   The total correlation energy is -0.861044761559 a.u.
  Convergence information after    24 iterations: 
  Largest element of residual vector : -0.28460939E-09.
  Largest element of DIIS residual   : -0.26412967E-09.
   The total correlation energy is -0.861044761559 a.u.
  Convergence information after    25 iterations: 
  Largest element of residual vector : -0.18161247E-09.
  Largest element of DIIS residual   : -0.13582055E-09.
   The total correlation energy is -0.861044761559 a.u.
  Convergence information after    26 iterations: 
  Largest element of residual vector : -0.11495425E-09.
  Largest element of DIIS residual   : -0.80283713E-10.
   The total correlation energy is -0.861044761560 a.u.
  Convergence information after    27 iterations: 
  Largest element of residual vector : -0.50658786E-10.
  Largest element of DIIS residual   : -0.35464704E-10.
   The total correlation energy is -0.861044761561 a.u.
  Convergence information after    28 iterations: 
  Largest element of residual vector : -0.27743842E-10.
  Largest element of DIIS residual   : -0.17275170E-10.
   The total correlation energy is -0.861044761561 a.u.
  Convergence information after    29 iterations: 
  Largest element of residual vector : -0.11678511E-10.
  Largest element of DIIS residual   : -0.82372339E-11.
   The total correlation energy is -0.861044761561 a.u.
  Convergence information after    30 iterations: 
  Largest element of residual vector : -0.58988383E-11.
  Largest element of DIIS residual   :  0.41592343E-11.
   The total correlation energy is -0.861044761561 a.u.
  Convergence information after    31 iterations: 
  Largest element of residual vector : -0.26588306E-11.
  Largest element of DIIS residual   : -0.25381347E-11.
   The total correlation energy is -0.861044761561 a.u.
  Convergence information after    32 iterations: 
  Largest element of residual vector : -0.17030457E-11.
  Largest element of DIIS residual   :  0.13934898E-11.
   The total correlation energy is -0.861044761561 a.u.
  Convergence information after    33 iterations: 
  Largest element of residual vector : -0.10805224E-11.
  Largest element of DIIS residual   : -0.96933237E-12.
   The total correlation energy is -0.861044761561 a.u.
  Convergence information after    34 iterations: 
  Largest element of residual vector : -0.64304074E-12.
  Largest element of DIIS residual   : -0.53573956E-12.
  Amplitude equations converged in    34iterations.
   The total correlation energy is -0.861044761561 a.u.
   The CC iterations have converged.

   Largest T1 amplitudes for spin case AA:
   i       a                 i       a                 i       a    
-----------------------------------------------------------------------------
[ 12     112    ]-0.01466 [ 12     109    ]-0.01279 [  9      39    ]-0.01113
[  9      17    ] 0.00725 [ 12     110    ]-0.00704 [  9      27    ] 0.00674
[ 13     109    ]-0.00667 [  8      39    ] 0.00606 [  7      27    ] 0.00591
[ 12     116    ]-0.00580 [  9      15    ]-0.00551 [  9      46    ] 0.00542
[ 10      26    ]-0.00540 [  8      26    ] 0.00502 [  9      38    ] 0.00498
-----------------------------------------------------------------------------
   Norm of T1AA vector (     1090 symmetry allowed elements):  0.0434277340.
-----------------------------------------------------------------------------
   Largest T2 amplitudes for spin case AB:
       _       _                 _       _                 _       _
   i   j   a   b             i   j   a   b             i   j   a   b
-----------------------------------------------------------------------------
[  9   9  15  15]-0.02471 [  9   9  17  17]-0.02446 [  9   9  17  15] 0.02369
[  9   9  15  17] 0.02369 [ 13  13 112 112]-0.01928 [  9   9  20  15] 0.01884
[  9   9  15  20] 0.01884 [  9   9  20  17]-0.01746 [  9   9  17  20]-0.01746
[  9   9  18  17] 0.01720 [  9   9  17  18] 0.01720 [  8   8  25  25]-0.01719
[  9   9  20  20]-0.01705 [ 13  13 116 116]-0.01702 [  9   9  18  15]-0.01692
-----------------------------------------------------------------------------
   Norm of T2AB vector (  1799624 symmetry allowed elements):  0.3560420507.
-----------------------------------------------------------------------------
       Summary of iterative solution of CC equations 
      -----------------------------------------------------------
                       Correlation           Total
       Iteration         Energy              Energy
      -----------------------------------------------------------
            0        -0.845035247125    -535.769676697073  DIIS 
            1        -0.846120279536    -535.770761729484  DIIS 
            2        -0.859724848907    -535.784366298855  DIIS 
            3        -0.859634479457    -535.784275929405  DIIS 
            4        -0.860919752740    -535.785561202689  DIIS 
            5        -0.861042645806    -535.785684095755  DIIS 
            6        -0.861043156281    -535.785684606230  DIIS 
            7        -0.861044085781    -535.785685535730  DIIS 
            8        -0.861043792288    -535.785685242237  DIIS 
            9        -0.861043571112    -535.785685021060  DIIS 
           10        -0.861044326140    -535.785685776088  DIIS 
           11        -0.861044552701    -535.785686002650  DIIS 
           12        -0.861044695400    -535.785686145349  DIIS 
           13        -0.861044751365    -535.785686201314  DIIS 
           14        -0.861044758312    -535.785686208260  DIIS 
           15        -0.861044760359    -535.785686210308  DIIS 
           16        -0.861044760543    -535.785686210492  DIIS 
           17        -0.861044761111    -535.785686211060  DIIS 
           18        -0.861044761126    -535.785686211075  DIIS 
           19        -0.861044761343    -535.785686211291  DIIS 
           20        -0.861044761485    -535.785686211434  DIIS 
           21        -0.861044761526    -535.785686211475  DIIS 
           22        -0.861044761561    -535.785686211509  DIIS 
           23        -0.861044761559    -535.785686211508  DIIS 
           24        -0.861044761559    -535.785686211508  DIIS 
           25        -0.861044761559    -535.785686211507  DIIS 
           26        -0.861044761559    -535.785686211507  DIIS 
           27        -0.861044761560    -535.785686211509  DIIS 
           28        -0.861044761561    -535.785686211510  DIIS 
           29        -0.861044761561    -535.785686211510  DIIS 
           30        -0.861044761561    -535.785686211510  DIIS 
           31        -0.861044761561    -535.785686211510  DIIS 
           32        -0.861044761561    -535.785686211510  DIIS 
           33        -0.861044761561    -535.785686211510  DIIS 
           34        -0.861044761561    -535.785686211510  DIIS 
      -----------------------------------------------------------
      A miracle has come to pass. The CC iterations have converged.
        E(CCSD)           =    -535.785686211510
        E(CCSD + T(CCSD)) =    -535.809417664260
        E(CCSD(T))        =    -535.808786839561
 @CHECKOUT-I, Total execution time (CPU/WALL):     1491.32/     189.93 seconds.
--executable xvcc finished with status     0 in      189.96 seconds (walltime).
 --invoking executable--
/home/asmola/.local/bin/xlambda
 @GETMEM-I,  Allocated    3814 MB of main memory.
 The Lambda equations are solved for CCSD(T).
  Initial lambda amplitudes: 
  Convergence information after     1 iterations: 
  Largest element of residual vector : -0.54633799E-02.
  Largest element of DIIS residual   : -0.54633799E-02.
  Convergence information after     2 iterations: 
  Largest element of residual vector : -0.27182005E-02.
  Largest element of DIIS residual   : -0.17098351E-02.
  Convergence information after     3 iterations: 
  Largest element of residual vector : -0.62911517E-03.
  Largest element of DIIS residual   : -0.32173064E-03.
  Convergence information after     4 iterations: 
  Largest element of residual vector : -0.27621796E-03.
  Largest element of DIIS residual   : -0.24582977E-03.
  Convergence information after     5 iterations: 
  Largest element of residual vector : -0.91109121E-04.
  Largest element of DIIS residual   : -0.58030843E-04.
  Convergence information after     6 iterations: 
  Largest element of residual vector : -0.50851604E-04.
  Largest element of DIIS residual   : -0.43210617E-04.
  Convergence information after     7 iterations: 
  Largest element of residual vector : -0.26979259E-04.
  Largest element of DIIS residual   : -0.15340391E-04.
  Convergence information after     8 iterations: 
  Largest element of residual vector : -0.15122911E-04.
  Largest element of DIIS residual   : -0.11136449E-04.
  Convergence information after     9 iterations: 
  Largest element of residual vector : -0.82565672E-05.
  Largest element of DIIS residual   : -0.49323408E-05.
  Convergence information after    10 iterations: 
  Largest element of residual vector : -0.41620235E-05.
  Largest element of DIIS residual   : -0.21489566E-05.
  Convergence information after    11 iterations: 
  Largest element of residual vector : -0.15549363E-05.
  Largest element of DIIS residual   :  0.61562076E-06.
  Convergence information after    12 iterations: 
  Largest element of residual vector :  0.46098455E-06.
  Largest element of DIIS residual   :  0.36456849E-06.
  Convergence information after    13 iterations: 
  Largest element of residual vector :  0.25158834E-06.
  Largest element of DIIS residual   :  0.15535453E-06.
  Convergence information after    14 iterations: 
  Largest element of residual vector :  0.11800751E-06.
  Largest element of DIIS residual   :  0.88892244E-07.
  Amplitude equations converged in    14 iterations.
      The lambda equations have converged.
 @CHECKOUT-I, Total execution time (CPU/WALL):      183.31/      24.36 seconds.
--executable xlambda finished with status     0 in       24.39 seconds (walltime).
 --invoking executable--
/home/asmola/.local/bin/xdens
 @GETMEM-I,  Allocated    3814 MB of main memory.
  CCSD(T) density and intermediates are calculated.
  The perturbed orbitals are chosen canonical.
  The iterative expansion of D(ai) converged after  22 iterations.
  ----------------------------------------------------------------------
                 Natural orbital occupation numbers
  ----------------------------------------------------------------------
  1.99980  1.99891  1.99815  1.99601  1.99601  1.99583  1.97910  1.96763
  1.96085  1.95743  1.94107  1.94057  1.91830  0.07696  0.02930  0.02752
  0.02261  0.02254  0.02141  0.01564  0.01396  0.01191  0.01076  0.01067
  0.00746  0.00689  0.00675  0.00664  0.00558  0.00525  0.00358  0.00195
  0.00188  0.00176  0.00170  0.00170  0.00168  0.00166  0.00150  0.00150
  0.00148  0.00148  0.00142  0.00140  0.00135  0.00126  0.00121  0.00116
  0.00111  0.00109  0.00095  0.00088  0.00086  0.00082  0.00079  0.00067
  0.00067  0.00060  0.00060  0.00058  0.00056  0.00055  0.00052  0.00051
  0.00045  0.00035  0.00035  0.00031  0.00029  0.00025  0.00025  0.00023
  0.00019  0.00018  0.00017  0.00015  0.00015  0.00014  0.00014  0.00012
  0.00012  0.00012  0.00011  0.00010  0.00010  0.00010  0.00010  0.00009
  0.00009  0.00009  0.00009  0.00009  0.00009  0.00009  0.00009  0.00009
  0.00008  0.00008  0.00008  0.00008  0.00008  0.00007  0.00007  0.00007
  0.00007  0.00007  0.00006  0.00006  0.00006  0.00005  0.00005  0.00005
  0.00005  0.00005  0.00005  0.00004  0.00004  0.00004  0.00004  0.00004
  0.00003  0.00002  0.00002  0.00002  0.00002  0.00002  0.00002  0.00002
  0.00001  0.00001  0.00001  0.00001  0.00001  0.00001  0.00001  0.00001
  0.00001  0.00001  0.00001  0.00001  0.00001  0.00001  0.00001  0.00001
  0.00001  0.00000  0.00000  0.00000  0.00000  0.00000  0.00000  0.00000
  0.00000  0.00000  0.00000  0.00000  0.00000
  Trace of density matrix :  26.0000000000.
  ----------------------------------------------------------------------
  Density calculation successfully completed.
 @CHECKOUT-I, Total execution time (CPU/WALL):       36.43/       8.15 seconds.
--executable xdens finished with status     0 in        8.17 seconds (walltime).
 --invoking executable--
/home/asmola/.local/bin/xvdint
 @GETMEM-I,  Allocated    3814 MB of main memory.
 One- and two-electron integral derivatives are calculated
 for RHF-CC/MBPT gradients and dipole moments.
 Spherical gaussians are used.

                    Relativistic corrections to energy
                   -----------------------------------

   Mass-velocity (p**4) contribution:            -6.16680617662002 Hartree
   1-el Darwin contribution:                      4.71089032613209 Hartree
   Total MVD1 correction to energy:              -1.45591585048792 Hartree
 
   Total energy with relativistic correction:  -537.26470269004926 Hartree

                Electronic contributions to dipole moment
                -----------------------------------------

                               au             Debye

                    x      1.67159868      4.24878078
                    y      0.23016793      0.58502863

  Conversion factor used: 1 a.u. =   2.54174691 Debye 


 Evaluation of 1e integral derivatives required    1.44 seconds.

                           Total dipole moment
                           -------------------

                               au             Debye

                    x     -0.13496942     -0.34305811
                    y     -0.57567949     -1.46323158

  Conversion factor used: 1 a.u. =   2.54174691 Debye 


 @CHECKOUT-I, Total execution time (CPU/WALL):        1.44/       0.21 seconds.
--executable xvdint finished with status     0 in        0.23 seconds (walltime).
  The final electronic energy is      -537.264702690049262 a.u. 
  This computation required                          278.05 seconds (walltime).
