
 Working directory              : /tmp/asmola/molpro.ammglACPjb/
 Global scratch directory       : /tmp/asmola/molpro.ammglACPjb/
 Wavefunction directory         : /home/asmola/wfu/
 Main file repository           : /tmp/asmola/molpro.ammglACPjb/

 id        : uclcc

 Nodes                        nprocs
 vincent.theory.phys.ucl.ac.uk    1
 GA implementation: MPI file
 GA implementation (serial work in mppx): MPI file

 Using customized tuning parameters: mindgm=1; mindgv=20; mindgc=4; mindgr=1; noblas=0; minvec=7
 default implementation of scratch files=df  


 Variables initialized (1015), CPU time= 0.00 sec
 ***,HOCl Ground State Energy with CCSD(T)-F12 and cc-pVQZ-F12
 memory,500,m;
 
 gthresh,energy=1.d-12,zero=1.d-14,thrint=1.d-14,oneint=1.d-14,twoint=1.d-14,prefac=1.d-20
 
 geometry={angstrom
 o
 h , 1, roh
 cl , 1, rocl, 2, alpha
 }
 
 roh = 0.96446195
 rocl = 1.68888476
 alpha = 103.00000000
 
 basis=cc-pV5Z-f12
 hf
 frozen
 ccsd(t)-f12,ri_basis=cc-pV5Z/jkfit,df_basis=aug-cc-pwCV5Z/mp2fit
 
                                                                                 ! Output the energy
 xxx = "mmm"
 point = 1.00000000
 text ### HOCl
 table,xxx,roh,rocl,alpha,energy,point
 DIGITS, 0, 8, 8, 8, 12, 4
 Commands initialized (818), CPU time= 0.01 sec, 672 directives.
 Default parameters read. Elapsed time= 0.07 sec

 Checking input...
 Passed
1


                                         ***  PROGRAM SYSTEM MOLPRO  ***
                                       Copyright, TTI GmbH Stuttgart, 2015
                                    Version 2022.1 linked Mar  3 2022 23:20:00


 **********************************************************************************************************************************
 LABEL *   HOCl Ground State Energy with CCSD(T)-F12 and cc-pVQZ-F12                     
  (8 PROC) 64 bit serial version                                                         DATE: 17-Sep-25          TIME: 11:51:04  
 **********************************************************************************************************************************

 SHA1:             31073afc4d8441e10870424e0d77336a33bc4286
 **********************************************************************************************************************************

 Memory per process:       500 MW
 Total memory per node:    500 MW

 GA preallocation disabled
 GA check disabled

 Variable memory set to 500.0 MW


 THRESHOLDS:

 ZERO    =  1.00D-14  ONEINT  =  1.00D-14  TWOINT  =  1.00D-14  PREFAC  =  1.00D-20  XXXXXX  =  1.00D-09  EORDER  =  1.00D-04
 ENERGY  =  1.00D-12  ETEST   =  0.00D+00  EDENS   =  0.00D+00  THRDEDEF=  1.00D-06  GRADIENT=  1.00D-05  STEP    =  1.00D-03
 ORBITAL =  1.00D-05  CIVEC   =  1.00D-05  COEFF   =  1.00D-04  PRINTCI =  5.00D-02  PUNCHCI =  9.90D+01  OPTGRAD =  3.00D-04
 OPTENERG=  1.00D-06  OPTSTEP =  3.00D-04  THRGRAD =  1.00D-10  COMPRESS=  1.00D-11  VARMIN  =  1.00D-07  VARMAX  =  1.00D-03
 THRDOUB =  0.00D+00  THRDIV  =  1.00D-05  THRRED  =  1.00D-07  THRPSP  =  1.00D+00  THRDC   =  1.00D-10  THRCS   =  1.00D-10
 THRNRM  =  1.00D-08  THREQ   =  0.00D+00  THRDE   =  1.00D+00  THRREF  =  1.00D-05  SPARFAC =  1.00D+00  THRDLP  =  1.00D-07
 THRDIA  =  1.00D-10  THRDLS  =  1.00D-07  THRGPS  =  0.00D+00  THRKEX  =  0.00D+00  THRDIS  =  2.00D-01  THRVAR  =  1.00D-10
 THRLOC  =  1.00D-06  THRGAP  =  1.00D-06  THRLOCT = -1.00D+00  THRGAPT = -1.00D+00  THRORB  =  1.00D-06  THRMLTP =  0.00D+00
 THRCPQCI=  1.00D-10  KEXTA   =  0.00D+00  THRCOARS=  0.00D+00  SYMTOL  =  1.00D-06  GRADTOL =  1.00D-06  THROVL  =  1.00D-08
 THRORTH =  1.00D-08  THRDLOVL= -1.00D+00  GRID    =  1.00D-06  GRIDMAX =  1.00D-03  DTMAX   =  0.00D+00  THROCCDE=  1.00D-01
 THROCCDE=  1.00D-01  THRPRINT=  2.50D-01

 SETTING ROH            =         0.96446195                                  
 SETTING ROCL           =         1.68888476                                  
 SETTING ALPHA          =       103.00000000                                  
 SETTING BASIS          =    CC-PV5Z-F12


 Recomputing integrals since basis changed


 Using spherical harmonics

 Library entry O      S cc-pV5Z-F12          selected for orbital group  1
 Library entry O      P cc-pV5Z-F12          selected for orbital group  1
 Library entry O      D cc-pV5Z-F12          selected for orbital group  1
 Library entry O      F cc-pV5Z-F12          selected for orbital group  1
 Library entry O      G cc-pV5Z-F12          selected for orbital group  1
 Library entry O      H cc-pV5Z-F12          selected for orbital group  1
 Library entry H      S cc-pV5Z-F12          selected for orbital group  2
 Library entry H      P cc-pV5Z-F12          selected for orbital group  2
 Library entry H      D cc-pV5Z-F12          selected for orbital group  2
 Library entry H      F cc-pV5Z-F12          selected for orbital group  2
 Library entry H      G cc-pV5Z-F12          selected for orbital group  2
 Library entry CL     S cc-pV5Z-F12          selected for orbital group  3
 Library entry CL     P cc-pV5Z-F12          selected for orbital group  3
 Library entry CL     D cc-pV5Z-F12          selected for orbital group  3
 Library entry CL     F cc-pV5Z-F12          selected for orbital group  3
 Library entry CL     G cc-pV5Z-F12          selected for orbital group  3
 Library entry CL     H cc-pV5Z-F12          selected for orbital group  3


 PROGRAM * SEWARD (Integral evaluation for generally contracted gaussian basis sets)     Author: Roland Lindh, 1990

 Geometry written to block  1 of record 700

 Orientation using atomic masses  
 Molecule type: Asymmetric top
 Symmetry elements: X
 Rotational constants:      14.7760974     15.1401499    614.5055928 GHz  (calculated with average atomic masses)

 Point group  Cs  



 ATOMIC COORDINATES

 NR  ATOM    CHARGE       X              Y              Z

   1  O       8.00    0.000000000    0.118821474   -2.145960667
   2  H       1.00    0.000000000   -1.639489684   -2.625647468
   3  CL     17.00    0.000000000   -0.007011115    1.043087417

 Bond lengths in Bohr (Angstrom)

 1-2  1.822568943  1-3  3.191529652
     ( 0.964461950)     ( 1.688884760)

 Bond angles

  2-1-3  103.00000000

 NUCLEAR CHARGE:                   26
 NUMBER OF PRIMITIVE AOS:         515
 NUMBER OF SYMMETRY AOS:          389
 NUMBER OF CONTRACTIONS:          333   (  206A'  +  127A"  )
 NUMBER OF INNER CORE ORBITALS:     1   (    1A'  +    0A"  )
 NUMBER OF OUTER CORE ORBITALS:     5   (    4A'  +    1A"  )
 NUMBER OF VALENCE ORBITALS:        9   (    7A'  +    2A"  )


 NUCLEAR REPULSION ENERGY   51.23575142


 Eigenvalues of metric

         1 0.256E-05 0.664E-05 0.746E-05 0.849E-05 0.329E-04 0.552E-04 0.679E-04 0.802E-04
         2 0.857E-05 0.158E-03 0.301E-03 0.597E-03 0.117E-02 0.169E-02 0.235E-02 0.308E-02


 Contracted 2-electron integrals neglected if value below      1.0D-14
 AO integral compression algorithm  1   Integral accuracy      1.0D-14

     5369.496 MB (compressed) written to integral file ( 72.7%)


 NUMBER OF SORTED TWO-ELECTRON INTEGRALS:  780230701.     BUFFER LENGTH:  32768
 NUMBER OF SEGMENTS:  25  SEGMENT LENGTH:   31996000      RECORD LENGTH: 524288

 Memory used in sort:      32.55 MW

 SORT1 READ   922993891. AND WROTE   727888226. INTEGRALS IN   2096 RECORDS. CPU TIME:     8.17 SEC, REAL TIME:    22.43 SEC
 SORT2 READ   727888226. AND WROTE   780230701. INTEGRALS IN  20483 RECORDS. CPU TIME:     7.60 SEC, REAL TIME:    10.15 SEC

 FILE SIZES:   FILE 1:  5402.4 MBYTE,  FILE 4:  8791.3 MBYTE,   TOTAL:  14193.7 MBYTE

 OPERATOR DM      FOR CENTER  0  COORDINATES:    0.000000    0.000000    0.000000


 **********************************************************************************************************************************
 DATASETS  * FILE   NREC   LENGTH (MB)   RECORD NAMES
              1      19     4434.22       500      610      700      900      950      970     1000      129      960     1100   
                                          VAR    BASINP    GEOM    SYMINP    ZMAT    AOBASIS   BASIS     P2S    ABASIS      S 
                                         1400     1410     1200     1210     1080     1600     1650     1300     1700   
                                           T        V       H0       H01     AOSYM     SMH    MOLCAS    ERIS     OPER   

 PROGRAMS   *        TOTAL       INT
 CPU TIMES  *       442.15    442.02
 REAL TIME  *       135.15 SEC
 DISK USED  *        13.22 GB
 **********************************************************************************************************************************


 Program * Restricted Hartree-Fock

 Orbital guess generated from atomic densities. Full valence occupancy:   12   3

 Initial occupancy:  10   3

 NELEC=   26   SYM=1   MS2= 0   THRE=1.0D-12   THRD=1.0D-06   THRG=1.0D-06  HFMA2=F  DIIS_START=2   DIIS_MAX=10   DIIS_INCORE=F

 Level shifts:    0.00 (CLOSED)    0.00 (OPEN)    0.30 (GAP_MIN)

 ITER           ETOT              DE          GRAD        DDIFF     DIIS  NEXP   TIME(IT)  TIME(TOT)  DIAG
   1     -534.90856748    -534.90856748     0.00D+00     0.41D-01     0     0      38.12     76.44    start
   2     -534.93219839      -0.02363092     0.37D-02     0.24D-02     1     0      37.57    114.01    diag
   3     -534.93436095      -0.00216256     0.12D-02     0.64D-03     2     0      36.60    150.61    diag
   4     -534.93464082      -0.00027987     0.35D-03     0.27D-03     3     0      38.84    189.45    diag
   5     -534.93469584      -0.00005502     0.14D-03     0.91D-04     4     0      39.63    229.08    diag
   6     -534.93470297      -0.00000713     0.45D-04     0.34D-04     5     0      38.67    267.75    diag
   7     -534.93470394      -0.00000096     0.11D-04     0.16D-04     6     0      37.53    305.28    diag
   8     -534.93470407      -0.00000013     0.42D-05     0.65D-05     7     0      38.99    344.27    fixocc
   9     -534.93470408      -0.00000001     0.12D-05     0.19D-05     8     0      36.92    381.19    diag
  10     -534.93470408      -0.00000000     0.29D-06     0.48D-06     9     0      37.29    418.48    diag/orth
  11     -534.93470408      -0.00000000     0.83D-07     0.13D-06     9     0      36.82    455.30    diag
  12     -534.93470408      -0.00000000     0.33D-07     0.63D-07     9     0      42.22    497.52    diag
  13     -534.93470408      -0.00000000     0.11D-07     0.24D-07     9     0      37.68    535.20    diag
  14     -534.93470408       0.00000000     0.29D-08     0.40D-08     0     0      38.54    573.74    diag

 Final occupancy:  10   3

 !RHF STATE 1.1 Energy               -534.934704076947
  RHF One-electron energy            -840.948647472731
  RHF Two-electron energy             254.778191972547
  RHF Kinetic energy                  534.817318948461
  RHF Nuclear energy                   51.235751423237
  RHF Virial quotient                  -1.000219486401

 !RHF STATE 1.1 Dipole moment           0.00000000    -0.62275505    -0.13365033
 Dipole moment /Debye                   0.00000000    -1.58288546    -0.33970525

 Orbital energies:

           1.1          2.1          3.1          4.1          5.1          6.1          7.1          8.1          9.1         10.1
   -104.889757   -20.640368   -10.610139    -8.077064    -8.074949    -1.413228    -1.061278    -0.722182    -0.605155    -0.468517

          11.1         12.1
      0.039546     0.066435

           1.2          2.2          3.2          4.2          5.2
     -8.074807    -0.614453    -0.444234     0.076111     0.104345


 HOMO      3.2    -0.444234 =     -12.0882eV
 LUMO     11.1     0.039546 =       1.0761eV
 LUMO-HOMO         0.483780 =      13.1643eV

 Orbitals saved in record  2100.2


 **********************************************************************************************************************************
 DATASETS  * FILE   NREC   LENGTH (MB)   RECORD NAMES
              1      19     4434.22       500      610      700      900      950      970     1000      129      960     1100   
                                          VAR    BASINP    GEOM    SYMINP    ZMAT    AOBASIS   BASIS     P2S    ABASIS      S 
                                         1400     1410     1200     1210     1080     1600     1650     1300     1700   
                                           T        V       H0       H01     AOSYM     SMH    MOLCAS    ERIS     OPER   

              2       4        1.32       700     1000      520     2100   
                                         GEOM     BASIS   MCVARS     RHF  

 PROGRAMS   *        TOTAL    HF-SCF       INT
 CPU TIMES  *      1015.93    573.78    442.02
 REAL TIME  *       215.86 SEC
 DISK USED  *        13.22 GB
 **********************************************************************************************************************************


 PROGRAM * CCSD (Closed-shell coupled cluster)     Authors: C. Hampel, H.-J. Werner, 1991, M. Deegan, P.J. Knowles, 1992

                                  CCSD-F12 implementation by  H.-J. Werner, 2007

                   Density fitting integral evaluation by F.R. Manby, 2003,2007, G. Knizia, 2010


 Basis set V5Z-F12/JKFIT generated.      Number of basis functions:   544 
 Basis set V5Z/JKFIT generated.          Number of basis functions:   410 
 Basis set AUG-CC-PWCV5Z/MP2FIT generated. Number of basis functions:   866 

 Convergence thresholds:  THRVAR = 1.00D-08  THRDEN = 1.00D-12

 CCSD(T)     terms to be evaluated (factor= 1.000)


 Number of core orbitals:           6 (   5   1 )
 Number of closed-shell orbitals:   7 (   5   2 )
 Number of external orbitals:     320 ( 196 124 )

 Molecular orbitals read from record     2100.2  Type=RHF/CANONICAL  

 MP2-F12 correlation treatment (H.-J. Werner, 2006)
 ==================================================

 Using MP2-F12 with ansatz 3C(FIX)

 Using projected zeroth-order Hamiltonian (+Z)

 FOCKRIB=T FOCKRIC=T FOCKRIP=T CABSP=T CABSA=T CABSK=T CABSF=T GBC=F EBC=F DMAT=T NOFIK=T NOPAO=1 SOLVE=-1  USEPAO=0
 EXCH_A= T EXCH_B= F EXCH_C= F EXCH_P= F

 Geminal basis:    OPTFULL  GEM_TYPE=SLATER  BETA=1.0  NGEM=6

 Optimizing Gaussian exponents for each gem_beta

 Geminal optimization for beta= 1.0000
 Weight function:   m=0, omega= 1.4646

 Augmented Hessian optimization of geminal fit. Trust ratio= 0.40000
 Convergence reached after   2 iterations. Final gradient= 8.66D-16, Step= 4.23D-06, Delta= 1.28D-09

 Alpha:                 0.19532     0.81920     2.85917     9.50073    35.69989   197.79328
 Coeff:                 0.27070     0.30552     0.18297     0.10986     0.06810     0.04224


 Symmetry turned off. Reference energy:       -534.934704076948

 All pairs explicitly correlated. Number of r12-pairs:           28

 Excluding core orbitals from MO domains

 AO(A)-basis ORBITAL           loaded. Number of functions:     333
 RI(R)-basis V5Z/JKFIT         loaded. Number of functions:     410
 DF-basis V5Z-F12/JKFIT        loaded. Number of functions:     544

 Screening thresholds:   THRAO=  1.00D-10  THRMO=  1.00D-09  THRPROD=  1.00D-09
                         THRSW=  1.00D-05  THROV=  1.00D-12  THRAOF12= 1.00D-08

 CPU time for Fock operators                     21.99 sec

 Construction of ABS:
 Smallest eigenvalue of S          9.06E-05  (threshold= 1.00E-08)
 Ratio eigmin/eigmax               1.54E-05  (threshold= 1.00E-09)
 Smallest eigenvalue of S kept     9.06E-05  (threshold= 9.06E-05, 0 functions deleted, 410 kept)

 Construction of CABS:
 Smallest eigenvalue of S          2.43E-10  (threshold= 1.00E-08)
 Ratio eigmin/eigmax               2.43E-10  (threshold= 1.00E-09)
 Smallest eigenvalue of S kept     4.45E-08  (threshold= 4.45E-08, 7 functions deleted, 403 kept)

 CPU time for CABS singles                        0.31 sec

 CABS-singles contribution of  -0.00004466 patched into reference energy.
 New reference energy        -534.93474874

 AO(A)-basis ORBITAL           loaded. Number of functions:     333
 RI(R)-basis V5Z/JKFIT         loaded. Number of functions:     410
 DF-basis AUG-CC-PWCV5Z/MP2FIT loaded. Number of functions:     866

 Screening thresholds:   THRAO=  1.00D-10  THRMO=  1.00D-09  THRPROD=  1.00D-09
                         THRSW=  1.00D-05  THROV=  1.00D-12  THRAOF12= 1.00D-08

 CPU time for 3-index integral evaluation        38.06 sec
 CPU time for first  half transformation          8.97 sec ( 1787.3 MFLOP/sec)
 CPU time for second half transformation          0.51 sec (  720.4 MFLOP/sec)
 CPU time for sorting                             0.14 sec
 CPU time for fitting                             0.55 sec (14928.2 MFLOP/sec)
 CPU time for tilde quantities                    0.75 sec (15427.1 MFLOP/sec)
 CPU time for assembly                            3.55 sec (18847.7 MFLOP/sec)
 CPU time for tranop_f12                          5.00 sec (12437.8 MFLOP/sec)
 CPU time for f12 integrals (total)              68.30 sec, Elapsed time:     24.62 sec
 CPU time for f12 matrices (total)                1.80 sec, Elapsed time:      0.25 sec

 Diagonal F12 approximation with fixed coefficients:  TSING= 0.500,  TTRIP= 0.250 (scaled by -1/beta)

 DF-MP2-F12 energy corrections:
 ==============================
 Approx.                                    Singlet             Triplet             Total
 DF-MP2-F12/3*C(DX,FIX)                -0.015717677737     -0.000842777077     -0.016560454814
 DF-MP2-F12/3*C(FIX)                   -0.015412209402     -0.000805579036     -0.016217788438
 DF-MP2-F12/3C(FIX)                    -0.015320621921     -0.000798895601     -0.016119517522

 DF-MP2-F12 correlation energies:
 ================================
 Approx.                                    Singlet             Triplet             Ecorr            Total Energy
 DF-MP2                                -0.322763973377     -0.174749026143     -0.497512999520   -535.432261740556
 DF-MP2-F12/3*C(DX,FIX)                -0.338481651113     -0.175591803220     -0.514073454334   -535.448822195370
 DF-MP2-F12/3*C(FIX)                   -0.338176182778     -0.175554605179     -0.513730787958   -535.448479528994
 DF-MP2-F12/3C(FIX)                    -0.338084595298     -0.175547921744     -0.513632517042   -535.448381258078

 SCS-DF-MP2 energies (F_SING= 1.20000  F_TRIP= 0.62222  F_PARALLEL= 0.33333):
 ============================================================================
 SCS-DF-MP2                            -0.496049495430   -535.430798236466
 SCS-DF-MP2-F12/3*C(DX,FIX)            -0.515435103340   -535.450183844376
 SCS-DF-MP2-F12/3*C(FIX)               -0.515045395890   -535.449794136926
 SCS-DF-MP2-F12/3C(FIX)                -0.514931332332   -535.449680073368

 Symmetry restored.
 Symmetry transformation completed.

 Number of N-1 electron functions:               7
 Number of N-2 electron functions:              28
 Number of singly external CSFs:              1228
 Number of doubly external CSFs:           1267184
 Total number of CSFs:                     1268413

 Length of J-op  integral file:             270.07 MB
 Length of K-op  integral file:             371.14 MB
 Length of 3-ext integral record:             0.00 MB

 Memory could be reduced to 160.18 Mwords without degradation in triples

 Integral transformation finished. Total CPU: 122.28 sec, npass=  1  Memory used:  48.59 MW

 Reference energy:                   -534.93474874

 Adding F12 terms to K(Cij), methodcc=6,  factor= 1.0

 ITER.      SQ.NORM     CORR.ENERGY   TOTAL ENERGY   ENERGY CHANGE        DEN1      VAR(S)    VAR(P)  DIIS     TIME  TIME/IT
   1      1.13926261    -0.50369195  -535.43844069    -0.00616699     0.00675160  0.19D-02  0.25D-02  1  1   291.19    10.04
   2      1.14875280    -0.50442577  -535.43917451    -0.00073382    -0.01062975  0.47D-04  0.35D-03  2  2   370.49    11.06
   3      1.15265537    -0.50452316  -535.43927190    -0.00009739    -0.00226584  0.23D-04  0.24D-04  3  3   449.42    10.76
   4      1.15420199    -0.50450978  -535.43925852     0.00001338    -0.00074393  0.19D-05  0.29D-05  4  4   524.89    10.50
   5      1.15457623    -0.50451364  -535.43926238    -0.00000386    -0.00008209  0.53D-06  0.29D-06  5  5   603.66    10.42
   6      1.15467995    -0.50450946  -535.43925820     0.00000418    -0.00001072  0.11D-06  0.49D-07  6  6   679.81    10.31
   7      1.15470687    -0.50450843  -535.43925717     0.00000104    -0.00000271  0.28D-07  0.68D-08  6  1   754.39    10.21
   8      1.15471478    -0.50450834  -535.43925709     0.00000008    -0.00000084  0.73D-08  0.16D-08  6  2   832.13    10.19
   9      1.15471752    -0.50450835  -535.43925709    -0.00000000     0.00000006  0.20D-08  0.44D-09  6  3   910.02    10.17
  10      1.15471710    -0.50450851  -535.43925725    -0.00000017     0.00000073  0.44D-09  0.12D-09  6  5   987.35    10.17
  11      1.15471795    -0.50450849  -535.43925723     0.00000003    -0.00000001  0.61D-10  0.25D-10  6  4  1065.62    10.16
  12      1.15471780    -0.50450849  -535.43925723    -0.00000000    -0.00000002  0.12D-10  0.44D-11  6  1  1140.85    10.13
  13      1.15471797    -0.50450847  -535.43925722     0.00000002    -0.00000004  0.13D-11  0.50D-12  6  6  1218.55    10.12
  14      1.15471793    -0.50450848  -535.43925722    -0.00000000     0.00000002  0.27D-12  0.11D-12  6  2  1291.95    10.08
  15      1.15471791    -0.50450848  -535.43925722    -0.00000000     0.00000001  0.30D-13  0.14D-13  6  3  1366.42    10.06
  16      1.15471791    -0.50450848  -535.43925722    -0.00000000    -0.00000000  0.51D-14  0.27D-14  6  5  1441.89    10.05
  17      1.15471791    -0.50450848  -535.43925722     0.00000000    -0.00000000  0.12D-14  0.62D-15  6  4  1516.90    10.03
  18      1.15471791    -0.50450848  -535.43925722     0.00000000    -0.00000000  0.41D-15  0.15D-15  6  1  1589.30    10.00
  19      1.15471791    -0.50450848  -535.43925722     0.00000000    -0.00000000  0.13D-15  0.39D-16  6  6  1662.39     9.97
  20      1.15471791    -0.50450848  -535.43925722     0.00000000    -0.00000000  0.36D-16  0.97D-17  6  3  1736.56     9.96
  21      1.15471791    -0.50450848  -535.43925722    -0.00000000     0.00000000  0.66D-17  0.16D-17  6  2  1814.03     9.96
  22      1.15471791    -0.50450848  -535.43925722    -0.00000000     0.00000000  0.96D-18  0.48D-18  6  5  1890.61     9.96
  23      1.15471791    -0.50450848  -535.43925722    -0.00000000     0.00000000  0.39D-18  0.26D-18  6  6  1972.24     9.98

 Norm of t1 vector:      0.05865061      S-energy:     0.00000000      T1 diagnostic:  0.01108392
                                                                       D1 diagnostic:  0.02357191
                                                                       D2 diagnostic:  0.16934675 (external, symmetry=1)

 Adding energy correction from Wij-K(Fij), methodcc=6  factor= 1.0

  CCSD correlation energy              -0.504508480606
  MP2-F12 correction (uncoupled)       -0.015611145185
  C*T doubles correction               -0.000387342447
  f12b correction                       0.003801541970


 Total CPU time for triples:    159.96 sec


 RESULTS
 =======

  Reference energy                   -534.934704076948
  F12 singles correction               -0.000044664089

 F12 singles corrections added to reference energy

  New reference energy               -534.934748741036

  F12a singlet correction              -0.015211523311
  F12a triplet correction              -0.000786964321
  F12a total correction                -0.015998487632

 F12a corrections for ansatz F12/3C(FIX) added to CCSD energy

  CCSD-F12a singlet pair energy        -0.361988873120
  CCSD-F12a triplet pair energy        -0.158518096260
  CCSD-F12a correlation energy         -0.520506968237

  Triples (T) contribution             -0.022604672965
  Total correlation energy             -0.543111641203

  CCSD-F12a total energy             -535.455255709274
  CCSD[T]-F12a energy                -535.478426872520
  CCSD-T-F12a energy                 -535.477619792119
 !CCSD(T)-F12a total energy          -535.477860382239

 F12b corrections for ansatz F12/3C(FIX) added to CCSD(T)-F12a energy

  CCSD-F12b singlet pair energy        -0.358321707312
  CCSD-F12b triplet pair energy        -0.158383720098
  CCSD-F12b correlation energy         -0.516705426268

  Triples (T) contribution             -0.022604672965
  Total correlation energy             -0.539310099233

  CCSD-F12b total energy             -535.451454167304
  CCSD[T]-F12b energy                -535.474625330550
  CCSD-T-F12b energy                 -535.473818250149
 !CCSD(T)-F12b total energy          -535.474058840269

 Timing summary (sec):

 STEP                 CPU(USER)    SYS     CPU(TOT)    WALL
 Transformation        122.73      1.60    124.33     16.77
 CCSD iterations      1756.62     30.30   1786.92    229.74
 Triples               159.96      2.27    162.23     39.25
 MP2-F12                93.10      1.21     94.31     42.21
 F12b energy            71.33      1.05     72.38      9.15

 Program statistics:

 Available memory in ccsd:               499999654
 Min. memory needed in ccsd:               4024656
 Max. memory used in ccsd:                 5082747
 Max. memory used in cckext:               9055803 (24 integral passes)



 **********************************************************************************************************************************
 DATASETS  * FILE   NREC   LENGTH (MB)   RECORD NAMES
              1      20     4894.35       500      610      700      900      950      970     1000      129      960     1100   
                                          VAR    BASINP    GEOM    SYMINP    ZMAT    AOBASIS   BASIS     P2S    ABASIS      S 
                                         1400     1410     1200     1210     1080     1600     1650     1300     1700     1380   
                                           T        V       H0       H01     AOSYM     SMH    MOLCAS    ERIS     OPER     JKOP   

              2       6        2.04       700     1000      520     2100     7360     7350   
                                         GEOM     BASIS   MCVARS     RHF    F12ABS    EF12   

 PROGRAMS   *        TOTAL   CCSD(T)    HF-SCF       INT
 CPU TIMES  *      3219.71   2203.77    573.78    442.02
 REAL TIME  *       553.11 SEC
 DISK USED  *        13.22 GB
 **********************************************************************************************************************************
 SETTING XXX            =    "MMM"
 SETTING POINT          =         1.00000000                                  

 *** ### HOCl


 XXX       ROH          ROCL           ALPHA           ENERGY          POINT
 "MMM"   0.96446195   1.68888476   103.00000000   -535.477860382239   1.0000
                                                  

 CCSD(T)-F12/cc-pV5Z-F12 energy=   -535.474058840269

     CCSD(T)-F12          HF-SCF
   -535.47405884   -534.93470408
 **********************************************************************************************************************************
 Molpro calculation terminated
