
 Working directory              : /tmp/asmola/molpro.DnOk9i7REu/
 Global scratch directory       : /tmp/asmola/molpro.DnOk9i7REu/
 Wavefunction directory         : /home/asmola/wfu/
 Main file repository           : /tmp/asmola/molpro.DnOk9i7REu/

 id        : uclcc

 Nodes                        nprocs
 vincent.theory.phys.ucl.ac.uk    1
 GA implementation: MPI file
 GA implementation (serial work in mppx): MPI file

 Using customized tuning parameters: mindgm=1; mindgv=20; mindgc=4; mindgr=1; noblas=0; minvec=7
 default implementation of scratch files=df  


 Variables initialized (1015), CPU time= 0.01 sec
 ***,HOCl Ground State Energy with CCSD(T)-F12 and cc-pVQZ-F12
 memory,500,m;
 
 gthresh,energy=1.d-12,zero=1.d-14,thrint=1.d-14,oneint=1.d-14,twoint=1.d-14,prefac=1.d-20
 
 geometry={angstrom
 o
 h , 1, roh
 cl , 1, rocl, 2, alpha
 }
 
 roh = 0.96446195
 rocl = 1.68888476
 alpha = 103.00000000
 
 basis=cc-pVTZ-f12
 hf
 ccsd(t)-f12,ri_basis=cc-pV5Z/jkfit,df_basis=aug-cc-pwCV5Z/mp2fit
 
 E_ccsd3 = ENERGC(2)
 E_t3 = ENERGY(2) - ENERGC(2)
 
 basis=cc-pVQZ-f12
 hf
 ccsd(t)-f12,ri_basis=cc-pV5Z/jkfit,df_basis=aug-cc-pwCV5Z/mp2fit
 
 E_ccsd4 = ENERGC(2)
 E_t4 = ENERGY(2) - ENERGC(2)
 
 E_ccsd = (E_ccsd4 - E_ccsd3)*1.363388 + E_ccsd3
 E_t = (E_t4 - E_t3)*1.769474 + E_t3
 E_total = E_ccsd + E_t
 
                                                                                 ! Output the energy
 xxx = "mmm"
 point = 1.00000000
 text ### HOCl
 table,xxx,roh,rocl,alpha,E_total,energy,point
 DIGITS, 0, 8, 8, 8, 12, 12, 4
 Commands initialized (818), CPU time= 0.00 sec, 672 directives.
 Default parameters read. Elapsed time= 0.05 sec

 Checking input...
 Passed
1


                                         ***  PROGRAM SYSTEM MOLPRO  ***
                                       Copyright, TTI GmbH Stuttgart, 2015
                                    Version 2022.1 linked Mar  3 2022 23:20:00


 **********************************************************************************************************************************
 LABEL *   HOCl Ground State Energy with CCSD(T)-F12 and cc-pVQZ-F12                     
  (2 PROC) 64 bit serial version                                                         DATE: 17-Sep-25          TIME: 12:20:06  
 **********************************************************************************************************************************

 SHA1:             31073afc4d8441e10870424e0d77336a33bc4286
 **********************************************************************************************************************************

 Memory per process:       500 MW
 Total memory per node:    500 MW

 GA preallocation disabled
 GA check disabled

 Variable memory set to 500.0 MW


 THRESHOLDS:

 ZERO    =  1.00D-14  ONEINT  =  1.00D-14  TWOINT  =  1.00D-14  PREFAC  =  1.00D-20  XXXXXX  =  1.00D-09  EORDER  =  1.00D-04
 ENERGY  =  1.00D-12  ETEST   =  0.00D+00  EDENS   =  0.00D+00  THRDEDEF=  1.00D-06  GRADIENT=  1.00D-05  STEP    =  1.00D-03
 ORBITAL =  1.00D-05  CIVEC   =  1.00D-05  COEFF   =  1.00D-04  PRINTCI =  5.00D-02  PUNCHCI =  9.90D+01  OPTGRAD =  3.00D-04
 OPTENERG=  1.00D-06  OPTSTEP =  3.00D-04  THRGRAD =  1.00D-10  COMPRESS=  1.00D-11  VARMIN  =  1.00D-07  VARMAX  =  1.00D-03
 THRDOUB =  0.00D+00  THRDIV  =  1.00D-05  THRRED  =  1.00D-07  THRPSP  =  1.00D+00  THRDC   =  1.00D-10  THRCS   =  1.00D-10
 THRNRM  =  1.00D-08  THREQ   =  0.00D+00  THRDE   =  1.00D+00  THRREF  =  1.00D-05  SPARFAC =  1.00D+00  THRDLP  =  1.00D-07
 THRDIA  =  1.00D-10  THRDLS  =  1.00D-07  THRGPS  =  0.00D+00  THRKEX  =  0.00D+00  THRDIS  =  2.00D-01  THRVAR  =  1.00D-10
 THRLOC  =  1.00D-06  THRGAP  =  1.00D-06  THRLOCT = -1.00D+00  THRGAPT = -1.00D+00  THRORB  =  1.00D-06  THRMLTP =  0.00D+00
 THRCPQCI=  1.00D-10  KEXTA   =  0.00D+00  THRCOARS=  0.00D+00  SYMTOL  =  1.00D-06  GRADTOL =  1.00D-06  THROVL  =  1.00D-08
 THRORTH =  1.00D-08  THRDLOVL= -1.00D+00  GRID    =  1.00D-06  GRIDMAX =  1.00D-03  DTMAX   =  0.00D+00  THROCCDE=  1.00D-01
 THROCCDE=  1.00D-01  THRPRINT=  2.50D-01

 SETTING ROH            =         0.96446195                                  
 SETTING ROCL           =         1.68888476                                  
 SETTING ALPHA          =       103.00000000                                  
 SETTING BASIS          =    CC-PVTZ-F12


 Recomputing integrals since basis changed


 Using spherical harmonics

 Library entry O      S cc-pVTZ-F12          selected for orbital group  1
 Library entry O      P cc-pVTZ-F12          selected for orbital group  1
 Library entry O      D cc-pVTZ-F12          selected for orbital group  1
 Library entry O      F cc-pVTZ-F12          selected for orbital group  1
 Library entry H      S cc-pVTZ-F12          selected for orbital group  2
 Library entry H      P cc-pVTZ-F12          selected for orbital group  2
 Library entry H      D cc-pVTZ-F12          selected for orbital group  2
 Library entry CL     S cc-pVTZ-F12          selected for orbital group  3
 Library entry CL     P cc-pVTZ-F12          selected for orbital group  3
 Library entry CL     D cc-pVTZ-F12          selected for orbital group  3
 Library entry CL     F cc-pVTZ-F12          selected for orbital group  3


 PROGRAM * SEWARD (Integral evaluation for generally contracted gaussian basis sets)     Author: Roland Lindh, 1990

 Geometry written to block  1 of record 700

 Orientation using atomic masses  
 Molecule type: Asymmetric top
 Symmetry elements: X
 Rotational constants:      14.7760974     15.1401499    614.5055928 GHz  (calculated with average atomic masses)

 Point group  Cs  



 ATOMIC COORDINATES

 NR  ATOM    CHARGE       X              Y              Z

   1  O       8.00    0.000000000    0.118821474   -2.145960667
   2  H       1.00    0.000000000   -1.639489684   -2.625647468
   3  CL     17.00    0.000000000   -0.007011115    1.043087417

 Bond lengths in Bohr (Angstrom)

 1-2  1.822568943  1-3  3.191529652
     ( 0.964461950)     ( 1.688884760)

 Bond angles

  2-1-3  103.00000000

 NUCLEAR CHARGE:                   26
 NUMBER OF PRIMITIVE AOS:         193
 NUMBER OF SYMMETRY AOS:          173
 NUMBER OF CONTRACTIONS:          133   (   89A'  +   44A"  )
 NUMBER OF INNER CORE ORBITALS:     1   (    1A'  +    0A"  )
 NUMBER OF OUTER CORE ORBITALS:     5   (    4A'  +    1A"  )
 NUMBER OF VALENCE ORBITALS:        9   (    7A'  +    2A"  )


 NUCLEAR REPULSION ENERGY   51.23575142


 Eigenvalues of metric

         1 0.209E-03 0.275E-03 0.293E-03 0.375E-03 0.568E-03 0.661E-03 0.744E-03 0.134E-02
         2 0.379E-03 0.701E-03 0.957E-02 0.285E-01 0.417E-01 0.453E-01 0.648E-01 0.758E-01


 Contracted 2-electron integrals neglected if value below      1.0D-14
 AO integral compression algorithm  1   Integral accuracy      1.0D-14

     172.753 MB (compressed) written to integral file ( 80.3%)


 NUMBER OF SORTED TWO-ELECTRON INTEGRALS:   20407410.     BUFFER LENGTH:  32768
 NUMBER OF SEGMENTS:   2  SEGMENT LENGTH:   15997905      RECORD LENGTH: 524288

 Memory used in sort:      16.55 MW

 SORT1 READ    26891786. AND WROTE    19080891. INTEGRALS IN     55 RECORDS. CPU TIME:     0.19 SEC, REAL TIME:     0.30 SEC
 SORT2 READ    19080891. AND WROTE    20407410. INTEGRALS IN    659 RECORDS. CPU TIME:     0.28 SEC, REAL TIME:     0.35 SEC

 FILE SIZES:   FILE 1:   203.2 MBYTE,  FILE 4:   230.7 MBYTE,   TOTAL:    434.0 MBYTE

 OPERATOR DM      FOR CENTER  0  COORDINATES:    0.000000    0.000000    0.000000


 **********************************************************************************************************************************
 DATASETS  * FILE   NREC   LENGTH (MB)   RECORD NAMES
              1      19      154.18       500      610      700      900      950      970     1000      129      960     1100   
                                          VAR    BASINP    GEOM    SYMINP    ZMAT    AOBASIS   BASIS     P2S    ABASIS      S 
                                         1400     1410     1200     1210     1080     1600     1650     1300     1700   
                                           T        V       H0       H01     AOSYM     SMH    MOLCAS    ERIS     OPER   

 PROGRAMS   *        TOTAL       INT
 CPU TIMES  *         4.11      4.00
 REAL TIME  *         2.87 SEC
 DISK USED  *       414.16 MB
 **********************************************************************************************************************************


 Program * Restricted Hartree-Fock

 Orbital guess generated from atomic densities. Full valence occupancy:   12   3

 Initial occupancy:  10   3

 NELEC=   26   SYM=1   MS2= 0   THRE=1.0D-12   THRD=1.0D-06   THRG=1.0D-06  HFMA2=F  DIIS_START=2   DIIS_MAX=10   DIIS_INCORE=F

 Level shifts:    0.00 (CLOSED)    0.00 (OPEN)    0.30 (GAP_MIN)

 ITER           ETOT              DE          GRAD        DDIFF     DIIS  NEXP   TIME(IT)  TIME(TOT)  DIAG
   1     -534.90578310    -534.90578310     0.00D+00     0.10D+00     0     0       0.12      0.23    start
   2     -534.92932059      -0.02353749     0.59D-02     0.69D-02     1     0       0.10      0.33    diag
   3     -534.93143869      -0.00211811     0.19D-02     0.16D-02     2     0       0.12      0.45    diag
   4     -534.93170851      -0.00026982     0.54D-03     0.72D-03     3     0       0.11      0.56    diag
   5     -534.93176144      -0.00005293     0.23D-03     0.22D-03     4     0       0.11      0.67    diag
   6     -534.93176809      -0.00000665     0.69D-04     0.75D-04     5     0       0.12      0.79    diag
   7     -534.93176898      -0.00000088     0.17D-04     0.36D-04     6     0       0.11      0.90    diag
   8     -534.93176909      -0.00000012     0.64D-05     0.15D-04     7     0       0.12      1.02    fixocc
   9     -534.93176910      -0.00000001     0.19D-05     0.48D-05     8     0       0.11      1.13    diag
  10     -534.93176910      -0.00000000     0.45D-06     0.11D-05     9     0       0.11      1.24    diag/orth
  11     -534.93176910      -0.00000000     0.12D-06     0.31D-06     9     0       0.12      1.36    diag
  12     -534.93176910      -0.00000000     0.49D-07     0.16D-06     9     0       0.11      1.47    diag
  13     -534.93176910      -0.00000000     0.16D-07     0.61D-07     9     0       0.12      1.59    diag
  14     -534.93176910      -0.00000000     0.41D-08     0.14D-07     9     0       0.11      1.70    diag
  15     -534.93176910       0.00000000     0.98D-09     0.14D-08     0     0       0.12      1.82    diag

 Final occupancy:  10   3

 !RHF STATE 1.1 Energy               -534.931769102174
  RHF One-electron energy            -840.936102606846
  RHF Two-electron energy             254.768582081435
  RHF Kinetic energy                  534.808115420210
  RHF Nuclear energy                   51.235751423237
  RHF Virial quotient                  -1.000231211304

 !RHF STATE 1.1 Dipole moment           0.00000000    -0.62724160    -0.12944762
 Dipole moment /Debye                   0.00000000    -1.59428912    -0.32902302

 Orbital energies:

           1.1          2.1          3.1          4.1          5.1          6.1          7.1          8.1          9.1         10.1
   -104.889953   -20.641543   -10.610348    -8.077556    -8.074985    -1.413729    -1.061513    -0.722389    -0.605304    -0.468564

          11.1         12.1
      0.049761     0.086570

           1.2          2.2          3.2          4.2          5.2
     -8.074829    -0.614507    -0.444249     0.098632     0.171532


 HOMO      3.2    -0.444249 =     -12.0886eV
 LUMO     11.1     0.049761 =       1.3541eV
 LUMO-HOMO         0.494010 =      13.4427eV

 Orbitals saved in record  2100.2


 **********************************************************************************************************************************
 DATASETS  * FILE   NREC   LENGTH (MB)   RECORD NAMES
              1      19      154.18       500      610      700      900      950      970     1000      129      960     1100   
                                          VAR    BASINP    GEOM    SYMINP    ZMAT    AOBASIS   BASIS     P2S    ABASIS      S 
                                         1400     1410     1200     1210     1080     1600     1650     1300     1700   
                                           T        V       H0       H01     AOSYM     SMH    MOLCAS    ERIS     OPER   

              2       4        0.54       700     1000      520     2100   
                                         GEOM     BASIS   MCVARS     RHF  

 PROGRAMS   *        TOTAL    HF-SCF       INT
 CPU TIMES  *         5.94      1.83      4.00
 REAL TIME  *         4.78 SEC
 DISK USED  *       414.16 MB
 **********************************************************************************************************************************


 PROGRAM * CCSD (Closed-shell coupled cluster)     Authors: C. Hampel, H.-J. Werner, 1991, M. Deegan, P.J. Knowles, 1992

                                  CCSD-F12 implementation by  H.-J. Werner, 2007

                   Density fitting integral evaluation by F.R. Manby, 2003,2007, G. Knizia, 2010


 Basis set VTZ-F12/JKFIT generated.      Number of basis functions:   296 
 Basis set V5Z/JKFIT generated.          Number of basis functions:   410 
 Basis set AUG-CC-PWCV5Z/MP2FIT generated. Number of basis functions:   866 

 Convergence thresholds:  THRVAR = 1.00D-08  THRDEN = 1.00D-12

 CCSD(T)     terms to be evaluated (factor= 1.000)


 Number of core orbitals:           6 (   5   1 )
 Number of closed-shell orbitals:   7 (   5   2 )
 Number of external orbitals:     120 (  79  41 )

 Molecular orbitals read from record     2100.2  Type=RHF/CANONICAL  

 MP2-F12 correlation treatment (H.-J. Werner, 2006)
 ==================================================

 Using MP2-F12 with ansatz 3C(FIX)

 Using projected zeroth-order Hamiltonian (+Z)

 FOCKRIB=T FOCKRIC=T FOCKRIP=T CABSP=T CABSA=T CABSK=T CABSF=T GBC=F EBC=F DMAT=T NOFIK=T NOPAO=1 SOLVE=-1  USEPAO=0
 EXCH_A= T EXCH_B= F EXCH_C= F EXCH_P= F

 Geminal basis:    OPTFULL  GEM_TYPE=SLATER  BETA=1.0  NGEM=6

 Optimizing Gaussian exponents for each gem_beta

 Geminal optimization for beta= 1.0000
 Weight function:   m=0, omega= 1.4646

 Augmented Hessian optimization of geminal fit. Trust ratio= 0.40000
 Convergence reached after   2 iterations. Final gradient= 8.66D-16, Step= 4.23D-06, Delta= 1.28D-09

 Alpha:                 0.19532     0.81920     2.85917     9.50073    35.69989   197.79328
 Coeff:                 0.27070     0.30552     0.18297     0.10986     0.06810     0.04224


 Symmetry turned off. Reference energy:       -534.931769102174

 All pairs explicitly correlated. Number of r12-pairs:           28

 Excluding core orbitals from MO domains

 AO(A)-basis ORBITAL           loaded. Number of functions:     133
 RI(R)-basis V5Z/JKFIT         loaded. Number of functions:     410
 DF-basis VTZ-F12/JKFIT        loaded. Number of functions:     296

 Screening thresholds:   THRAO=  1.00D-10  THRMO=  1.00D-09  THRPROD=  1.00D-09
                         THRSW=  1.00D-05  THROV=  1.00D-12  THRAOF12= 1.00D-08

 CPU time for Fock operators                      5.57 sec

 Construction of ABS:
 Smallest eigenvalue of S          9.06E-05  (threshold= 1.00E-08)
 Ratio eigmin/eigmax               1.54E-05  (threshold= 1.00E-09)
 Smallest eigenvalue of S kept     9.06E-05  (threshold= 9.06E-05, 0 functions deleted, 410 kept)

 Construction of CABS:
 Smallest eigenvalue of S          5.04E-08  (threshold= 1.00E-08)
 Ratio eigmin/eigmax               5.04E-08  (threshold= 1.00E-09)
 Smallest eigenvalue of S kept     5.04E-08  (threshold= 5.04E-08, 0 functions deleted, 410 kept)

 CPU time for CABS singles                        0.06 sec

 CABS-singles contribution of  -0.00197370 patched into reference energy.
 New reference energy        -534.93374280

 AO(A)-basis ORBITAL           loaded. Number of functions:     133
 RI(R)-basis V5Z/JKFIT         loaded. Number of functions:     410
 DF-basis AUG-CC-PWCV5Z/MP2FIT loaded. Number of functions:     866

 Screening thresholds:   THRAO=  1.00D-10  THRMO=  1.00D-09  THRPROD=  1.00D-09
                         THRSW=  1.00D-05  THROV=  1.00D-12  THRAOF12= 1.00D-08

 CPU time for 3-index integral evaluation         5.83 sec
 CPU time for first  half transformation          0.65 sec ( 6378.0 MFLOP/sec)
 CPU time for second half transformation          0.05 sec ( 2934.7 MFLOP/sec)
 CPU time for sorting                             0.04 sec
 CPU time for fitting                             0.15 sec (40737.6 MFLOP/sec)
 CPU time for tilde quantities                    0.17 sec (43356.3 MFLOP/sec)
 CPU time for assembly                            0.57 sec (53318.9 MFLOP/sec)
 CPU time for tranop_f12                          0.46 sec (40606.0 MFLOP/sec)
 CPU time for f12 integrals (total)              14.62 sec, Elapsed time:     12.28 sec
 CPU time for f12 matrices (total)                0.14 sec, Elapsed time:      0.09 sec

 Diagonal F12 approximation with fixed coefficients:  TSING= 0.500,  TTRIP= 0.250 (scaled by -1/beta)

 DF-MP2-F12 energy corrections:
 ==============================
 Approx.                                    Singlet             Triplet             Total
 DF-MP2-F12/3*C(DX,FIX)                -0.048665264389     -0.005679714842     -0.054344979231
 DF-MP2-F12/3*C(FIX)                   -0.047367002118     -0.005692519755     -0.053059521873
 DF-MP2-F12/3C(FIX)                    -0.046825517061     -0.005828364999     -0.052653882059

 DF-MP2-F12 correlation energies:
 ================================
 Approx.                                    Singlet             Triplet             Ecorr            Total Energy
 DF-MP2                                -0.288764445326     -0.169085285813     -0.457849731140   -535.391592528648
 DF-MP2-F12/3*C(DX,FIX)                -0.337429709715     -0.174765000655     -0.512194710370   -535.445937507879
 DF-MP2-F12/3*C(FIX)                   -0.336131447444     -0.174777805569     -0.510909253013   -535.444652050522
 DF-MP2-F12/3C(FIX)                    -0.335589962387     -0.174913650812     -0.510503613199   -535.444246410708

 SCS-DF-MP2 energies (F_SING= 1.20000  F_TRIP= 0.62222  F_PARALLEL= 0.33333):
 ============================================================================
 SCS-DF-MP2                            -0.451725956675   -535.385468754184
 SCS-DF-MP2-F12/3*C(DX,FIX)            -0.513658318733   -535.447401116242
 SCS-DF-MP2-F12/3*C(FIX)               -0.512108371509   -535.445851169018
 SCS-DF-MP2-F12/3C(FIX)                -0.511543115370   -535.445285912878

 Symmetry restored.
 Symmetry transformation completed.

 Number of N-1 electron functions:               7
 Number of N-2 electron functions:              28
 Number of singly external CSFs:               477
 Number of doubly external CSFs:            180069
 Total number of CSFs:                      180547

 Length of J-op  integral file:             112.02 MB
 Length of K-op  integral file:             128.54 MB
 Length of 3-ext integral record:             0.00 MB

 Memory could be reduced to 8.91 Mwords without degradation in triples

 Integral transformation finished. Total CPU:   0.63 sec, npass=  1  Memory used:   3.03 MW

 Reference energy:                   -534.93374280

 Adding F12 terms to K(Cij), methodcc=6,  factor= 1.0

 ITER.      SQ.NORM     CORR.ENERGY   TOTAL ENERGY   ENERGY CHANGE        DEN1      VAR(S)    VAR(P)  DIIS     TIME  TIME/IT
   1      1.13585817    -0.46742479  -535.40116759    -0.00957419     0.00361166  0.18D-02  0.24D-02  1  1    21.75     0.31
   2      1.14508044    -0.46695263  -535.40069543     0.00047216    -0.01005251  0.45D-04  0.33D-03  2  2    22.35     0.32
   3      1.14844396    -0.46712108  -535.40086388    -0.00016845    -0.00179144  0.28D-04  0.27D-04  3  3    22.95     0.32
   4      1.15024797    -0.46716247  -535.40090527    -0.00004139    -0.00101222  0.17D-05  0.27D-05  4  4    23.56     0.33
   5      1.15058769    -0.46716456  -535.40090735    -0.00000209    -0.00005898  0.46D-06  0.26D-06  5  5    24.16     0.33
   6      1.15067182    -0.46716036  -535.40090316     0.00000419    -0.00000131  0.94D-07  0.45D-07  6  6    24.76     0.33
   7      1.15069758    -0.46715952  -535.40090232     0.00000084    -0.00000469  0.24D-07  0.58D-08  6  1    25.38     0.33
   8      1.15070443    -0.46716001  -535.40090281    -0.00000049     0.00000013  0.53D-08  0.12D-08  6  3    25.97     0.33
   9      1.15070715    -0.46715998  -535.40090277     0.00000004    -0.00000055  0.16D-08  0.32D-09  6  2    26.58     0.33
  10      1.15070798    -0.46716000  -535.40090279    -0.00000002     0.00000013  0.33D-09  0.10D-09  6  4    27.18     0.33
  11      1.15070756    -0.46715999  -535.40090279     0.00000001     0.00000026  0.39D-10  0.17D-10  6  6    27.79     0.33
  12      1.15070749    -0.46716001  -535.40090281    -0.00000003     0.00000015  0.57D-11  0.25D-11  6  5    28.40     0.33
  13      1.15070756    -0.46716001  -535.40090281     0.00000000    -0.00000002  0.12D-11  0.47D-12  6  1    29.00     0.33
  14      1.15070762    -0.46716001  -535.40090281     0.00000000    -0.00000002  0.15D-12  0.94D-13  6  3    29.60     0.33
  15      1.15070763    -0.46716001  -535.40090281     0.00000000    -0.00000001  0.46D-13  0.15D-13  6  2    30.21     0.33
  16      1.15070763    -0.46716001  -535.40090281    -0.00000000    -0.00000000  0.12D-13  0.29D-14  6  4    30.83     0.33
  17      1.15070762    -0.46716001  -535.40090281    -0.00000000     0.00000000  0.41D-14  0.79D-15  6  6    31.43     0.33
  18      1.15070761    -0.46716001  -535.40090281    -0.00000000     0.00000000  0.11D-14  0.21D-15  6  5    32.03     0.33
  19      1.15070761    -0.46716001  -535.40090281    -0.00000000     0.00000000  0.29D-15  0.75D-16  6  1    32.63     0.33
  20      1.15070761    -0.46716001  -535.40090281     0.00000000    -0.00000000  0.77D-16  0.22D-16  6  3    33.23     0.33
  21      1.15070761    -0.46716001  -535.40090281    -0.00000000     0.00000000  0.79D-17  0.60D-17  6  4    33.83     0.33
  22      1.15070761    -0.46716001  -535.40090281    -0.00000000    -0.00000000  0.36D-18  0.29D-18  6  2    34.42     0.33
  23      1.15070761    -0.46716001  -535.40090281     0.00000000    -0.00000000  0.78D-19  0.54D-19  6  6    35.02     0.33

 Norm of t1 vector:      0.05866245      S-energy:     0.00000000      T1 diagnostic:  0.01108616
                                                                       D1 diagnostic:  0.02355355
                                                                       D2 diagnostic:  0.17015884 (external, symmetry=1)

 Adding energy correction from Wij-K(Fij), methodcc=6  factor= 1.0

  CCSD correlation energy              -0.467160010750
  MP2-F12 correction (uncoupled)       -0.049316723450
  C*T doubles correction               -0.002508639857
  f12b correction                       0.008969403915


 Total CPU time for triples:      3.01 sec


 RESULTS
 =======

  Reference energy                   -534.931769102174
  F12 singles correction               -0.001973695334

 F12 singles corrections added to reference energy

  New reference energy               -534.933742797509

  F12a singlet correction              -0.046292654445
  F12a triplet correction              -0.005532708862
  F12a total correction                -0.051825363307

 F12a corrections for ansatz F12/3C(FIX) added to CCSD energy

  CCSD-F12a singlet pair energy        -0.360674963965
  CCSD-F12a triplet pair energy        -0.158310410161
  CCSD-F12a correlation energy         -0.518985374056

  Triples (T) contribution             -0.019906303852
  Total correlation energy             -0.538891677908

  CCSD-F12a total energy             -535.452728171565
  CCSD[T]-F12a energy                -535.473189473568
  CCSD-T-F12a energy                 -535.472392758203
 !CCSD(T)-F12a total energy          -535.472634475417

 F12b corrections for ansatz F12/3C(FIX) added to CCSD(T)-F12a energy

  CCSD-F12b singlet pair energy        -0.352329284076
  CCSD-F12b triplet pair energy        -0.157686686135
  CCSD-F12b correlation energy         -0.510015970141

  Triples (T) contribution             -0.019906303852
  Total correlation energy             -0.529922273993

  CCSD-F12b total energy             -535.443758767650
  CCSD[T]-F12b energy                -535.464220069653
  CCSD-T-F12b energy                 -535.463423354288
 !CCSD(T)-F12b total energy          -535.463665071502

 Timing summary (sec):

 STEP                 CPU(USER)    SYS     CPU(TOT)    WALL
 Transformation          0.64      0.05      0.69      0.40
 CCSD iterations        13.89      0.92     14.81      7.69
 Triples                 3.01      0.10      3.11      1.57
 MP2-F12                20.51      0.53     21.04     17.92
 F12b energy             0.44      0.03      0.47      0.24

 Program statistics:

 Available memory in ccsd:               499999654
 Min. memory needed in ccsd:                604177
 Max. memory used in ccsd:                  747081
 Max. memory used in cckext:                954424 (24 integral passes)



 **********************************************************************************************************************************
 DATASETS  * FILE   NREC   LENGTH (MB)   RECORD NAMES
              1      20      180.88       500      610      700      900      950      970     1000      129      960     1100   
                                          VAR    BASINP    GEOM    SYMINP    ZMAT    AOBASIS   BASIS     P2S    ABASIS      S 
                                         1400     1410     1200     1210     1080     1600     1650     1300     1700     1380   
                                           T        V       H0       H01     AOSYM     SMH    MOLCAS    ERIS     OPER     JKOP   

              2       6        0.65       700     1000      520     2100     7360     7350   
                                         GEOM     BASIS   MCVARS     RHF    F12ABS    EF12   

 PROGRAMS   *        TOTAL   CCSD(T)    HF-SCF       INT
 CPU TIMES  *        44.48     38.52      1.83      4.00
 REAL TIME  *        32.67 SEC
 DISK USED  *       639.95 MB
 **********************************************************************************************************************************
 SETTING E_CCSD3        =      -535.44375877  AU                              
 SETTING E_T3           =        -0.01990630  AU                              
 SETTING BASIS          =    CC-PVQZ-F12


 Recomputing integrals since basis changed


 Using spherical harmonics

 Library entry O      S cc-pVQZ-F12          selected for orbital group  1
 Library entry O      P cc-pVQZ-F12          selected for orbital group  1
 Library entry O      D cc-pVQZ-F12          selected for orbital group  1
 Library entry O      F cc-pVQZ-F12          selected for orbital group  1
 Library entry O      G cc-pVQZ-F12          selected for orbital group  1
 Library entry H      S cc-pVQZ-F12          selected for orbital group  2
 Library entry H      P cc-pVQZ-F12          selected for orbital group  2
 Library entry H      D cc-pVQZ-F12          selected for orbital group  2
 Library entry H      F cc-pVQZ-F12          selected for orbital group  2
 Library entry CL     S cc-pVQZ-F12          selected for orbital group  3
 Library entry CL     P cc-pVQZ-F12          selected for orbital group  3
 Library entry CL     D cc-pVQZ-F12          selected for orbital group  3
 Library entry CL     F cc-pVQZ-F12          selected for orbital group  3
 Library entry CL     G cc-pVQZ-F12          selected for orbital group  3


 PROGRAM * SEWARD (Integral evaluation for generally contracted gaussian basis sets)     Author: Roland Lindh, 1990

 Geometry written to block  1 of record 700

 Orientation using atomic masses  
 Molecule type: Asymmetric top
 Symmetry elements: X
 Rotational constants:      14.7760974     15.1401499    614.5055928 GHz  (calculated with average atomic masses)

 Point group  Cs  



 ATOMIC COORDINATES

 NR  ATOM    CHARGE       X              Y              Z

   1  O       8.00    0.000000000    0.118821474   -2.145960667
   2  H       1.00    0.000000000   -1.639489684   -2.625647468
   3  CL     17.00    0.000000000   -0.007011115    1.043087417

 Bond lengths in Bohr (Angstrom)

 1-2  1.822568943  1-3  3.191529652
     ( 0.964461950)     ( 1.688884760)

 Bond angles

  2-1-3  103.00000000

 NUCLEAR CHARGE:                   26
 NUMBER OF PRIMITIVE AOS:         318
 NUMBER OF SYMMETRY AOS:          262
 NUMBER OF CONTRACTIONS:          217   (  139A'  +   78A"  )
 NUMBER OF INNER CORE ORBITALS:     1   (    1A'  +    0A"  )
 NUMBER OF OUTER CORE ORBITALS:     5   (    4A'  +    1A"  )
 NUMBER OF VALENCE ORBITALS:        9   (    7A'  +    2A"  )


 NUCLEAR REPULSION ENERGY   51.23575142


 Eigenvalues of metric

         1 0.283E-05 0.295E-05 0.264E-04 0.614E-04 0.179E-03 0.210E-03 0.416E-03 0.434E-03
         2 0.296E-05 0.443E-03 0.976E-03 0.444E-02 0.124E-01 0.133E-01 0.193E-01 0.244E-01


 Contracted 2-electron integrals neglected if value below      1.0D-14
 AO integral compression algorithm  1   Integral accuracy      1.0D-14

     1047.003 MB (compressed) written to integral file ( 74.8%)


 NUMBER OF SORTED TWO-ELECTRON INTEGRALS:  142023526.     BUFFER LENGTH:  32768
 NUMBER OF SEGMENTS:   9  SEGMENT LENGTH:   15999111      RECORD LENGTH: 524288

 Memory used in sort:      16.56 MW

 SORT1 READ   174978798. AND WROTE   132425308. INTEGRALS IN    383 RECORDS. CPU TIME:     1.46 SEC, REAL TIME:     2.08 SEC
 SORT2 READ   132425308. AND WROTE   142023526. INTEGRALS IN   3994 RECORDS. CPU TIME:     1.46 SEC, REAL TIME:     1.94 SEC

 FILE SIZES:   FILE 1:  1078.3 MBYTE,  FILE 4:  1606.5 MBYTE,   TOTAL:   2684.7 MBYTE

 OPERATOR DM      FOR CENTER  0  COORDINATES:    0.000000    0.000000    0.000000


 **********************************************************************************************************************************
 DATASETS  * FILE   NREC   LENGTH (MB)   RECORD NAMES
              1      19      849.13       500      610      700      900      950      970     1001      129      960     1100   
                                          VAR    BASINP    GEOM    SYMINP    ZMAT    AOBASIS   BASIS     P2S    ABASIS      S 
                                         1400     1410     1200     1210     1080     1600     1650     1300     1700   
                                           T        V       H0       H01     AOSYM     SMH    MOLCAS    ERIS     OPER   

              2       7        0.69       700     1000      520     2100     7360     7350     1001   
                                         GEOM     BASIS   MCVARS     RHF    F12ABS    EF12     BASIS   

 PROGRAMS   *        TOTAL       INT   CCSD(T)    HF-SCF       INT
 CPU TIMES  *        70.34     25.86     38.52      1.83      4.00
 REAL TIME  *        49.63 SEC
 DISK USED  *         2.50 GB
 **********************************************************************************************************************************


 Program * Restricted Hartree-Fock

 Molecular orbitals read from record     2100.2  Type=RHF/CANONICAL  

 Present basis size:      139   78
 Previous basis size:      89   44
 Previous occupation:      10    3
 Previous closed-shells:   10    3
 Previous core-orbitals:    5    1
 Present occupation:       10    3
 Present closed-shells:    10    3
 Present core-orbitals:     5    1
 Wavefunction symmetry:    1   Singlet 

 Orbital overlap <old|new>:  < 1.1| 1.1> = 1.000000   < 2.1| 2.1> = 1.000000   < 3.1| 3.1> = 1.000000   < 4.1| 4.1> = 1.000000
                             < 5.1| 5.1> = 1.000000   < 1.2| 1.2> = 1.000000   < 6.1| 6.1> = 0.999998   < 7.1| 7.1> = 0.999998
                             < 8.1| 8.1> = 0.999994   < 9.1| 9.1> = 0.999995   <10.1|10.1> = 0.999997   < 2.2| 2.2> = 0.999991
                             < 3.2| 3.2> = 0.999995


 Initial occupancy:  10   3

 NELEC=   26   SYM=1   MS2= 0   THRE=1.0D-12   THRD=1.0D-06   THRG=1.0D-06  HFMA2=F  DIIS_START=2   DIIS_MAX=10   DIIS_INCORE=F

 Level shifts:    0.00 (CLOSED)    0.00 (OPEN)    0.30 (GAP_MIN)

 ITER           ETOT              DE          GRAD        DDIFF     DIIS  NEXP   TIME(IT)  TIME(TOT)  DIAG
   1     -534.93349198    -534.93349198     0.00D+00     0.65D-01     0     0       1.60      1.62    start
   2     -534.93435955      -0.00086756     0.18D-02     0.70D-02     1     0       1.59      3.21    diag
   3     -534.93436412      -0.00000458     0.87D-04     0.27D-03     2     0       1.58      4.79    diag
   4     -534.93436423      -0.00000010     0.11D-04     0.24D-04     3     0       1.55      6.34    diag
   5     -534.93436427      -0.00000005     0.68D-05     0.48D-05     4     0       1.58      7.92    diag
   6     -534.93436428      -0.00000000     0.11D-05     0.17D-05     5     0       1.57      9.49    diag
   7     -534.93436428      -0.00000000     0.61D-06     0.93D-06     6     0       1.57     11.06    diag
   8     -534.93436428      -0.00000000     0.15D-06     0.36D-06     7     0       1.58     12.64    fixocc
   9     -534.93436428      -0.00000000     0.33D-07     0.65D-07     8     0       1.58     14.22    diag
  10     -534.93436428      -0.00000000     0.12D-07     0.22D-07     9     0       1.59     15.81    diag/orth
  11     -534.93436428       0.00000000     0.54D-08     0.11D-07     9     0       1.58     17.39    diag
  12     -534.93436428      -0.00000000     0.16D-08     0.23D-08     0     0       1.58     18.97    diag

 Final occupancy:  10   3

 !RHF STATE 1.1 Energy               -534.934364280566
  RHF One-electron energy            -840.947252161147
  RHF Two-electron energy             254.777136457344
  RHF Kinetic energy                  534.815090262309
  RHF Nuclear energy                   51.235751423237
  RHF Virial quotient                  -1.000223019171

 !RHF STATE 1.1 Dipole moment           0.00000000    -0.62464598    -0.13190271
 Dipole moment /Debye                   0.00000000    -1.58769172    -0.33526326

 Orbital energies:

           1.1          2.1          3.1          4.1          5.1          6.1          7.1          8.1          9.1         10.1
   -104.889814   -20.640449   -10.610174    -8.077116    -8.074957    -1.413265    -1.061309    -0.722195    -0.605167    -0.468528

          11.1         12.1
      0.045035     0.074799

           1.2          2.2          3.2          4.2          5.2
     -8.074813    -0.614459    -0.444242     0.088371     0.137243


 HOMO      3.2    -0.444242 =     -12.0884eV
 LUMO     11.1     0.045035 =       1.2255eV
 LUMO-HOMO         0.489277 =      13.3139eV

 Orbitals saved in record  2101.2


 **********************************************************************************************************************************
 DATASETS  * FILE   NREC   LENGTH (MB)   RECORD NAMES
              1      19      849.13       500      610      700      900      950      970     1001      129      960     1100   
                                          VAR    BASINP    GEOM    SYMINP    ZMAT    AOBASIS   BASIS     P2S    ABASIS      S 
                                         1400     1410     1200     1210     1080     1600     1650     1300     1700   
                                           T        V       H0       H01     AOSYM     SMH    MOLCAS    ERIS     OPER   

              2       8        1.18       700     1000      520     2100     7360     7350     1001     2101   
                                         GEOM     BASIS   MCVARS     RHF    F12ABS    EF12     BASIS     RHF  

 PROGRAMS   *        TOTAL    HF-SCF       INT   CCSD(T)    HF-SCF       INT
 CPU TIMES  *        89.32     18.98     25.86     38.52      1.83      4.00
 REAL TIME  *        60.39 SEC
 DISK USED  *         2.50 GB
 **********************************************************************************************************************************


 PROGRAM * CCSD (Closed-shell coupled cluster)     Authors: C. Hampel, H.-J. Werner, 1991, M. Deegan, P.J. Knowles, 1992

                                  CCSD-F12 implementation by  H.-J. Werner, 2007

                   Density fitting integral evaluation by F.R. Manby, 2003,2007, G. Knizia, 2010



 Convergence thresholds:  THRVAR = 1.00D-08  THRDEN = 1.00D-12

 CCSD(T)     terms to be evaluated (factor= 1.000)


 Number of core orbitals:           6 (   5   1 )
 Number of closed-shell orbitals:   7 (   5   2 )
 Number of external orbitals:     204 ( 129  75 )

 Molecular orbitals read from record     2101.2  Type=RHF/CANONICAL (state 1.1)

 MP2-F12 correlation treatment (H.-J. Werner, 2006)
 ==================================================

 Using MP2-F12 with ansatz 3C(FIX)

 Using projected zeroth-order Hamiltonian (+Z)

 FOCKRIB=T FOCKRIC=T FOCKRIP=T CABSP=T CABSA=T CABSK=T CABSF=T GBC=F EBC=F DMAT=T NOFIK=T NOPAO=1 SOLVE=-1  USEPAO=0
 EXCH_A= T EXCH_B= F EXCH_C= F EXCH_P= F

 Geminal basis:    OPTFULL  GEM_TYPE=SLATER  BETA=1.0  NGEM=6

 Optimizing Gaussian exponents for each gem_beta

 Geminal optimization for beta= 1.0000
 Weight function:   m=0, omega= 1.4646

 Augmented Hessian optimization of geminal fit. Trust ratio= 0.40000
 Convergence reached after   2 iterations. Final gradient= 8.66D-16, Step= 4.23D-06, Delta= 1.28D-09

 Alpha:                 0.19532     0.81920     2.85917     9.50073    35.69989   197.79328
 Coeff:                 0.27070     0.30552     0.18297     0.10986     0.06810     0.04224


 Symmetry turned off. Reference energy:       -534.934364280566

 All pairs explicitly correlated. Number of r12-pairs:           28

 Excluding core orbitals from MO domains

 AO(A)-basis ORBITAL           loaded. Number of functions:     217
 RI(R)-basis V5Z/JKFIT         loaded. Number of functions:     410
 DF-basis VQZ-F12/JKFIT        loaded. Number of functions:     402

 Screening thresholds:   THRAO=  1.00D-10  THRMO=  1.00D-09  THRPROD=  1.00D-09
                         THRSW=  1.00D-05  THROV=  1.00D-12  THRAOF12= 1.00D-08

 CPU time for Fock operators                      9.34 sec

 Construction of ABS:
 Smallest eigenvalue of S          9.06E-05  (threshold= 1.00E-08)
 Ratio eigmin/eigmax               1.54E-05  (threshold= 1.00E-09)
 Smallest eigenvalue of S kept     9.06E-05  (threshold= 9.06E-05, 0 functions deleted, 410 kept)

 Construction of CABS:
 Smallest eigenvalue of S          3.08E-09  (threshold= 1.00E-08)
 Ratio eigmin/eigmax               3.08E-09  (threshold= 1.00E-09)
 Smallest eigenvalue of S kept     2.06E-08  (threshold= 2.06E-08, 2 functions deleted, 408 kept)

 CPU time for CABS singles                        0.08 sec

 CABS-singles contribution of  -0.00017417 patched into reference energy.
 New reference energy        -534.93453845

 AO(A)-basis ORBITAL           loaded. Number of functions:     217
 RI(R)-basis V5Z/JKFIT         loaded. Number of functions:     410
 DF-basis AUG-CC-PWCV5Z/MP2FIT loaded. Number of functions:     866

 Screening thresholds:   THRAO=  1.00D-10  THRMO=  1.00D-09  THRPROD=  1.00D-09
                         THRSW=  1.00D-05  THROV=  1.00D-12  THRAOF12= 1.00D-08

 CPU time for 3-index integral evaluation        10.02 sec
 CPU time for first  half transformation          1.20 sec ( 6925.9 MFLOP/sec)
 CPU time for second half transformation          0.07 sec ( 3420.2 MFLOP/sec)
 CPU time for sorting                             0.03 sec
 CPU time for fitting                             0.16 sec (43703.7 MFLOP/sec)
 CPU time for tilde quantities                    0.21 sec (43497.4 MFLOP/sec)
 CPU time for assembly                            0.75 sec (57821.9 MFLOP/sec)
 CPU time for tranop_f12                          0.72 sec (44802.9 MFLOP/sec)
 CPU time for f12 integrals (total)              20.03 sec, Elapsed time:     16.42 sec
 CPU time for f12 matrices (total)                0.23 sec, Elapsed time:      0.14 sec

 Diagonal F12 approximation with fixed coefficients:  TSING= 0.500,  TTRIP= 0.250 (scaled by -1/beta)

 DF-MP2-F12 energy corrections:
 ==============================
 Approx.                                    Singlet             Triplet             Total
 DF-MP2-F12/3*C(DX,FIX)                -0.026783492985     -0.002107161603     -0.028890654588
 DF-MP2-F12/3*C(FIX)                   -0.026116250419     -0.002026417395     -0.028142667815
 DF-MP2-F12/3C(FIX)                    -0.026083803768     -0.002050621328     -0.028134425096

 DF-MP2-F12 correlation energies:
 ================================
 Approx.                                    Singlet             Triplet             Ecorr            Total Energy
 DF-MP2                                -0.311501865999     -0.173353359144     -0.484855225142   -535.419393674827
 DF-MP2-F12/3*C(DX,FIX)                -0.338285358984     -0.175460520746     -0.513745879730   -535.448284329415
 DF-MP2-F12/3*C(FIX)                   -0.337618116418     -0.175379776539     -0.512997892957   -535.447536342642
 DF-MP2-F12/3C(FIX)                    -0.337585669767     -0.175403980472     -0.512989650239   -535.447528099923

 SCS-DF-MP2 energies (F_SING= 1.20000  F_TRIP= 0.62222  F_PARALLEL= 0.33333):
 ============================================================================
 SCS-DF-MP2                            -0.481666551555   -535.416205001239
 SCS-DF-MP2-F12/3*C(DX,FIX)            -0.515117865912   -535.449656315597
 SCS-DF-MP2-F12/3*C(FIX)               -0.514266933993   -535.448805383677
 SCS-DF-MP2-F12/3C(FIX)                -0.514243058236   -535.448781507921

 Symmetry restored.
 Symmetry transformation completed.

 Number of N-1 electron functions:               7
 Number of N-2 electron functions:              28
 Number of singly external CSFs:               795
 Number of doubly external CSFs:            517071
 Total number of CSFs:                      517867

 Length of J-op  integral file:             165.17 MB
 Length of K-op  integral file:             209.76 MB
 Length of 3-ext integral record:             0.00 MB

 Memory could be reduced to 42.22 Mwords without degradation in triples

 Integral transformation finished. Total CPU:   4.89 sec, npass=  1  Memory used:  13.26 MW

 Reference energy:                   -534.93453845

 Adding F12 terms to K(Cij), methodcc=6,  factor= 1.0

 ITER.      SQ.NORM     CORR.ENERGY   TOTAL ENERGY   ENERGY CHANGE        DEN1      VAR(S)    VAR(P)  DIIS     TIME  TIME/IT
   1      1.13869555    -0.49298908  -535.42752753    -0.00813045     0.00495147  0.19D-02  0.25D-02  1  1    38.14     1.77
   2      1.14816657    -0.49330259  -535.42784104    -0.00031351    -0.01053162  0.45D-04  0.34D-03  2  2    41.59     1.80
   3      1.15169269    -0.49342587  -535.42796432    -0.00012327    -0.00193260  0.28D-04  0.27D-04  3  3    45.01     1.81
   4      1.15346054    -0.49342068  -535.42795913     0.00000518    -0.00096824  0.19D-05  0.29D-05  4  4    48.47     1.82
   5      1.15382896    -0.49342396  -535.42796241    -0.00000327    -0.00007017  0.52D-06  0.28D-06  5  5    51.94     1.83
   6      1.15392533    -0.49341984  -535.42795829     0.00000412    -0.00000499  0.11D-06  0.49D-07  6  6    55.39     1.83
   7      1.15395339    -0.49341886  -535.42795731     0.00000098    -0.00000434  0.26D-07  0.61D-08  6  1    58.86     1.83
   8      1.15396020    -0.49341898  -535.42795743    -0.00000012     0.00000016  0.63D-08  0.14D-08  6  3    62.33     1.84
   9      1.15396328    -0.49341891  -535.42795736     0.00000007    -0.00000053  0.18D-08  0.38D-09  6  2    65.80     1.84
  10      1.15396310    -0.49341902  -535.42795747    -0.00000011     0.00000055  0.40D-09  0.11D-09  6  5    69.26     1.84
  11      1.15396394    -0.49341898  -535.42795743     0.00000003    -0.00000006  0.48D-10  0.20D-10  6  4    72.70     1.84
  12      1.15396373    -0.49341900  -535.42795745    -0.00000001     0.00000002  0.81D-11  0.33D-11  6  1    76.14     1.84
  13      1.15396387    -0.49341899  -535.42795743     0.00000001    -0.00000002  0.10D-11  0.39D-12  6  6    79.59     1.84
  14      1.15396385    -0.49341899  -535.42795744    -0.00000000     0.00000001  0.21D-12  0.94D-13  6  3    83.08     1.84
  15      1.15396385    -0.49341899  -535.42795744    -0.00000000     0.00000000  0.23D-13  0.12D-13  6  2    86.56     1.84
  16      1.15396385    -0.49341899  -535.42795744    -0.00000000    -0.00000000  0.40D-14  0.18D-14  6  5    90.05     1.84
  17      1.15396385    -0.49341899  -535.42795744    -0.00000000    -0.00000000  0.92D-15  0.43D-15  6  4    93.54     1.85
  18      1.15396385    -0.49341899  -535.42795744     0.00000000    -0.00000000  0.33D-15  0.12D-15  6  1    97.00     1.85
  19      1.15396385    -0.49341899  -535.42795744    -0.00000000     0.00000000  0.14D-15  0.45D-16  6  6   100.47     1.85
  20      1.15396385    -0.49341899  -535.42795744    -0.00000000     0.00000000  0.52D-16  0.13D-16  6  3   103.92     1.85
  21      1.15396385    -0.49341899  -535.42795744     0.00000000    -0.00000000  0.27D-16  0.75D-17  6  2   107.38     1.85
  22      1.15396385    -0.49341899  -535.42795744     0.00000000    -0.00000000  0.72D-17  0.20D-17  6  5   110.78     1.85
  23      1.15396385    -0.49341899  -535.42795744     0.00000000    -0.00000000  0.35D-17  0.91D-18  6  4   114.21     1.84
  24      1.15396385    -0.49341899  -535.42795744     0.00000000    -0.00000000  0.10D-17  0.43D-18  6  1   117.61     1.84

 Norm of t1 vector:      0.05861353      S-energy:     0.00000000      T1 diagnostic:  0.01107692
                                                                       D1 diagnostic:  0.02361980
                                                                       D2 diagnostic:  0.16952191 (external, symmetry=1)

 Adding energy correction from Wij-K(Fij), methodcc=6  factor= 1.0

  CCSD correlation energy              -0.493418987861
  MP2-F12 correction (uncoupled)       -0.027061138285
  C*T doubles correction               -0.000940026762
  f12b correction                       0.005949017491


 Total CPU time for triples:     21.62 sec


 RESULTS
 =======

  Reference energy                   -534.934364280566
  F12 singles correction               -0.000174169118

 F12 singles corrections added to reference energy

  New reference energy               -534.934538449684

  F12a singlet correction              -0.025975725944
  F12a triplet correction              -0.002025439103
  F12a total correction                -0.028001165047

 F12a corrections for ansatz F12/3C(FIX) added to CCSD energy

  CCSD-F12a singlet pair energy        -0.362812548889
  CCSD-F12a triplet pair energy        -0.158607604634
  CCSD-F12a correlation energy         -0.521420152908

  Triples (T) contribution             -0.021777048743
  Total correlation energy             -0.543197201651

  CCSD-F12a total energy             -535.455958602592
  CCSD[T]-F12a energy                -535.478297624205
  CCSD-T-F12a energy                 -535.477494725093
 !CCSD(T)-F12a total energy          -535.477735651336

 F12b corrections for ansatz F12/3C(FIX) added to CCSD(T)-F12a energy

  CCSD-F12b singlet pair energy        -0.357158463780
  CCSD-F12b triplet pair energy        -0.158312672252
  CCSD-F12b correlation energy         -0.515471135417

  Triples (T) contribution             -0.021777048743
  Total correlation energy             -0.537248184160

  CCSD-F12b total energy             -535.450009585101
  CCSD[T]-F12b energy                -535.472348606715
  CCSD-T-F12b energy                 -535.471545707602
 !CCSD(T)-F12b total energy          -535.471786633845

 Timing summary (sec):

 STEP                 CPU(USER)    SYS     CPU(TOT)    WALL
 Transformation          4.92      0.30      5.22      2.73
 CCSD iterations        82.86      4.68     87.54     44.31
 Triples                21.62      0.50     22.12     12.96
 MP2-F12                29.85      0.74     30.59     25.73
 F12b energy             2.93      0.16      3.09      1.57

 Program statistics:

 Available memory in ccsd:               499999644
 Min. memory needed in ccsd:               1673999
 Max. memory used in ccsd:                 2098689
 Max. memory used in cckext:               3076771 (25 integral passes)



 **********************************************************************************************************************************
 DATASETS  * FILE   NREC   LENGTH (MB)   RECORD NAMES
              1      20      972.14       500      610      700      900      950      970     1001      129      960     1100   
                                          VAR    BASINP    GEOM    SYMINP    ZMAT    AOBASIS   BASIS     P2S    ABASIS      S 
                                         1400     1410     1200     1210     1080     1600     1650     1300     1700     1380   
                                           T        V       H0       H01     AOSYM     SMH    MOLCAS    ERIS     OPER     JKOP   

              2       9        1.48       700     1000      520     2100     7360     7350     1001     2101     7360(1)
                                         GEOM     BASIS   MCVARS     RHF    F12ABS    EF12     BASIS     RHF    F12ABS    

 PROGRAMS   *        TOTAL   CCSD(T)    HF-SCF       INT   CCSD(T)    HF-SCF       INT
 CPU TIMES  *       231.54    142.21     18.98     25.86     38.52      1.83      4.00
 REAL TIME  *       147.78 SEC
 DISK USED  *         2.50 GB
 **********************************************************************************************************************************
 SETTING E_CCSD4        =      -535.45000959  AU                              
 SETTING E_T4           =        -0.02177705  AU                              
 SETTING E_CCSD         =      -535.45228106  AU                              
 SETTING E_T            =        -0.02321654  AU                              
 SETTING E_TOTAL        =      -535.47549760  AU                              
 SETTING XXX            =    "MMM"
 SETTING POINT          =         1.00000000                                  

 *** ### HOCl


 XXX       ROH          ROCL           ALPHA           E_TOTAL             ENERGY          POINT
 "MMM"   0.96446195   1.68888476   103.00000000   -535.475497595451   -535.477735651336   1.0000
                                                  

 CCSD(T)-F12/cc-pVQZ-F12 energy=   -535.471786633845

     CCSD(T)-F12          HF-SCF     CCSD(T)-F12          HF-SCF
   -535.47178663   -534.93436428   -535.46366507   -534.93176910
 **********************************************************************************************************************************
 Molpro calculation terminated
