
 Working directory              : /tmp/asmola/molpro.Em1bDmBsmY/
 Global scratch directory       : /tmp/asmola/molpro.Em1bDmBsmY/
 Wavefunction directory         : /home/asmola/wfu/
 Main file repository           : /tmp/asmola/molpro.Em1bDmBsmY/

 id        : uclcc

 Nodes                        nprocs
 vincent.theory.phys.ucl.ac.uk    1
 GA implementation: MPI file
 GA implementation (serial work in mppx): MPI file

 Using customized tuning parameters: mindgm=1; mindgv=20; mindgc=4; mindgr=1; noblas=0; minvec=7
 default implementation of scratch files=df  


 Variables initialized (1015), CPU time= 0.00 sec
 ***,HOCl Ground State Energy with CCSD(T)-F12 and cc-pVQZ-F12
 memory,500,m;
 
 gthresh,energy=1.d-12,zero=1.d-14,thrint=1.d-14,oneint=1.d-14,twoint=1.d-14,prefac=1.d-20
 
 geometry={angstrom
 o
 h , 1, roh
 cl , 1, rocl, 2, alpha
 }
 
 roh = 0.96446195
 rocl = 1.68888476
 alpha = 103.00000000
 
 basis=cc-pVDZ-f12
 hf
 frozen
 ccsd(t)-f12,ri_basis=cc-pV5Z/jkfit,df_basis=aug-cc-pwCV5Z/mp2fit
 
                                                                                 ! Output the energy
 xxx = "mmm"
 point = 1.00000000
 text ### HOCl
 table,xxx,roh,rocl,alpha,energy,point
 DIGITS, 0, 8, 8, 8, 12, 4
 Commands initialized (818), CPU time= 0.01 sec, 672 directives.
 Default parameters read. Elapsed time= 0.09 sec

 Checking input...
 Passed
1


                                         ***  PROGRAM SYSTEM MOLPRO  ***
                                       Copyright, TTI GmbH Stuttgart, 2015
                                    Version 2022.1 linked Mar  3 2022 23:20:00


 **********************************************************************************************************************************
 LABEL *   HOCl Ground State Energy with CCSD(T)-F12 and cc-pVQZ-F12                     
  (8 PROC) 64 bit serial version                                                         DATE: 17-Sep-25          TIME: 11:47:41  
 **********************************************************************************************************************************

 SHA1:             31073afc4d8441e10870424e0d77336a33bc4286
 **********************************************************************************************************************************

 Memory per process:       500 MW
 Total memory per node:    500 MW

 GA preallocation disabled
 GA check disabled

 Variable memory set to 500.0 MW


 THRESHOLDS:

 ZERO    =  1.00D-14  ONEINT  =  1.00D-14  TWOINT  =  1.00D-14  PREFAC  =  1.00D-20  XXXXXX  =  1.00D-09  EORDER  =  1.00D-04
 ENERGY  =  1.00D-12  ETEST   =  0.00D+00  EDENS   =  0.00D+00  THRDEDEF=  1.00D-06  GRADIENT=  1.00D-05  STEP    =  1.00D-03
 ORBITAL =  1.00D-05  CIVEC   =  1.00D-05  COEFF   =  1.00D-04  PRINTCI =  5.00D-02  PUNCHCI =  9.90D+01  OPTGRAD =  3.00D-04
 OPTENERG=  1.00D-06  OPTSTEP =  3.00D-04  THRGRAD =  1.00D-10  COMPRESS=  1.00D-11  VARMIN  =  1.00D-07  VARMAX  =  1.00D-03
 THRDOUB =  0.00D+00  THRDIV  =  1.00D-05  THRRED  =  1.00D-07  THRPSP  =  1.00D+00  THRDC   =  1.00D-10  THRCS   =  1.00D-10
 THRNRM  =  1.00D-08  THREQ   =  0.00D+00  THRDE   =  1.00D+00  THRREF  =  1.00D-05  SPARFAC =  1.00D+00  THRDLP  =  1.00D-07
 THRDIA  =  1.00D-10  THRDLS  =  1.00D-07  THRGPS  =  0.00D+00  THRKEX  =  0.00D+00  THRDIS  =  2.00D-01  THRVAR  =  1.00D-10
 THRLOC  =  1.00D-06  THRGAP  =  1.00D-06  THRLOCT = -1.00D+00  THRGAPT = -1.00D+00  THRORB  =  1.00D-06  THRMLTP =  0.00D+00
 THRCPQCI=  1.00D-10  KEXTA   =  0.00D+00  THRCOARS=  0.00D+00  SYMTOL  =  1.00D-06  GRADTOL =  1.00D-06  THROVL  =  1.00D-08
 THRORTH =  1.00D-08  THRDLOVL= -1.00D+00  GRID    =  1.00D-06  GRIDMAX =  1.00D-03  DTMAX   =  0.00D+00  THROCCDE=  1.00D-01
 THROCCDE=  1.00D-01  THRPRINT=  2.50D-01

 SETTING ROH            =         0.96446195                                  
 SETTING ROCL           =         1.68888476                                  
 SETTING ALPHA          =       103.00000000                                  
 SETTING BASIS          =    CC-PVDZ-F12


 Recomputing integrals since basis changed


 Using spherical harmonics

 Library entry O      S cc-pVDZ-F12          selected for orbital group  1
 Library entry O      P cc-pVDZ-F12          selected for orbital group  1
 Library entry O      D cc-pVDZ-F12          selected for orbital group  1
 Library entry H      S cc-pVDZ-F12          selected for orbital group  2
 Library entry H      P cc-pVDZ-F12          selected for orbital group  2
 Library entry CL     S cc-pVDZ-F12          selected for orbital group  3
 Library entry CL     P cc-pVDZ-F12          selected for orbital group  3
 Library entry CL     D cc-pVDZ-F12          selected for orbital group  3


 PROGRAM * SEWARD (Integral evaluation for generally contracted gaussian basis sets)     Author: Roland Lindh, 1990

 Geometry written to block  1 of record 700

 Orientation using atomic masses  
 Molecule type: Asymmetric top
 Symmetry elements: X
 Rotational constants:      14.7760974     15.1401499    614.5055928 GHz  (calculated with average atomic masses)

 Point group  Cs  



 ATOMIC COORDINATES

 NR  ATOM    CHARGE       X              Y              Z

   1  O       8.00    0.000000000    0.118821474   -2.145960667
   2  H       1.00    0.000000000   -1.639489684   -2.625647468
   3  CL     17.00    0.000000000   -0.007011115    1.043087417

 Bond lengths in Bohr (Angstrom)

 1-2  1.822568943  1-3  3.191529652
     ( 0.964461950)     ( 1.688884760)

 Bond angles

  2-1-3  103.00000000

 NUCLEAR CHARGE:                   26
 NUMBER OF PRIMITIVE AOS:         122
 NUMBER OF SYMMETRY AOS:          117
 NUMBER OF CONTRACTIONS:           78   (   55A'  +   23A"  )
 NUMBER OF INNER CORE ORBITALS:     1   (    1A'  +    0A"  )
 NUMBER OF OUTER CORE ORBITALS:     5   (    4A'  +    1A"  )
 NUMBER OF VALENCE ORBITALS:        9   (    7A'  +    2A"  )


 NUCLEAR REPULSION ENERGY   51.23575142

 Eigenvalues of metric

         1 0.188E-02 0.318E-02 0.406E-02 0.429E-02 0.457E-02 0.535E-02 0.916E-02 0.930E-02
         2 0.428E-02 0.951E-02 0.590E-01 0.779E-01 0.158E+00 0.208E+00 0.218E+00 0.337E+00


 Contracted 2-electron integrals neglected if value below      1.0D-14
 AO integral compression algorithm  1   Integral accuracy      1.0D-14

     24.642 MB (compressed) written to integral file ( 82.3%)


 NUMBER OF SORTED TWO-ELECTRON INTEGRALS:    2499916.     BUFFER LENGTH:  32768
 NUMBER OF SEGMENTS:   1  SEGMENT LENGTH:    2499916      RECORD LENGTH: 524288

 Memory used in sort:       3.06 MW

 SORT1 READ     3703370. AND WROTE     2331410. INTEGRALS IN      7 RECORDS. CPU TIME:     0.02 SEC, REAL TIME:     0.04 SEC
 SORT2 READ     2331410. AND WROTE     2499916. INTEGRALS IN     94 RECORDS. CPU TIME:     0.06 SEC, REAL TIME:     0.07 SEC

 FILE SIZES:   FILE 1:    54.8 MBYTE,  FILE 4:    29.4 MBYTE,   TOTAL:     84.2 MBYTE

 OPERATOR DM      FOR CENTER  0  COORDINATES:    0.000000    0.000000    0.000000


 **********************************************************************************************************************************
 DATASETS  * FILE   NREC   LENGTH (MB)   RECORD NAMES
              1      19       44.40       500      610      700      900      950      970     1000      129      960     1100   
                                          VAR    BASINP    GEOM    SYMINP    ZMAT    AOBASIS   BASIS     P2S    ABASIS      S 
                                         1400     1410     1200     1210     1080     1600     1650     1300     1700   
                                           T        V       H0       H01     AOSYM     SMH    MOLCAS    ERIS     OPER   

 PROGRAMS   *        TOTAL       INT
 CPU TIMES  *         1.65      1.51
 REAL TIME  *         0.88 SEC
 DISK USED  *        80.58 MB
 **********************************************************************************************************************************


 Program * Restricted Hartree-Fock

 Orbital guess generated from atomic densities. Full valence occupancy:   12   3

 Initial occupancy:  10   3

 NELEC=   26   SYM=1   MS2= 0   THRE=1.0D-12   THRD=1.0D-06   THRG=1.0D-06  HFMA2=F  DIIS_START=2   DIIS_MAX=10   DIIS_INCORE=F

 Level shifts:    0.00 (CLOSED)    0.00 (OPEN)    0.30 (GAP_MIN)

 ITER           ETOT              DE          GRAD        DDIFF     DIIS  NEXP   TIME(IT)  TIME(TOT)  DIAG
   1     -534.89255241    -534.89255241     0.00D+00     0.16D+00     0     0       0.06      0.13    start
   2     -534.91504006      -0.02248765     0.76D-02     0.11D-01     1     0       0.04      0.17    diag
   3     -534.91693121      -0.00189115     0.24D-02     0.20D-02     2     0       0.06      0.23    diag
   4     -534.91716687      -0.00023565     0.68D-03     0.94D-03     3     0       0.04      0.27    diag
   5     -534.91721425      -0.00004738     0.29D-03     0.35D-03     4     0       0.07      0.34    diag
   6     -534.91721964      -0.00000539     0.83D-04     0.11D-03     5     0       0.06      0.40    diag
   7     -534.91722033      -0.00000069     0.21D-04     0.52D-04     6     0       0.05      0.45    diag
   8     -534.91722041      -0.00000008     0.73D-05     0.21D-04     7     0       0.05      0.50    fixocc
   9     -534.91722042      -0.00000001     0.22D-05     0.63D-05     8     0       0.05      0.55    diag
  10     -534.91722042      -0.00000000     0.51D-06     0.16D-05     9     0       0.06      0.61    diag/orth
  11     -534.91722042      -0.00000000     0.14D-06     0.40D-06     9     0       0.06      0.67    diag
  12     -534.91722042      -0.00000000     0.54D-07     0.20D-06     9     0       0.05      0.72    diag
  13     -534.91722042      -0.00000000     0.18D-07     0.71D-07     9     0       0.05      0.77    diag
  14     -534.91722042      -0.00000000     0.42D-08     0.78D-08     0     0       0.04      0.81    diag

 Final occupancy:  10   3

 !RHF STATE 1.1 Energy               -534.917220417454
  RHF One-electron energy            -840.881375256987
  RHF Two-electron energy             254.728403416297
  RHF Kinetic energy                  534.803088383083
  RHF Nuclear energy                   51.235751423237
  RHF Virial quotient                  -1.000213409453

 !RHF STATE 1.1 Dipole moment           0.00000000    -0.63740685    -0.11954380
 Dipole moment /Debye                   0.00000000    -1.62012661    -0.30385002

 Orbital energies:

           1.1          2.1          3.1          4.1          5.1          6.1          7.1          8.1          9.1         10.1
   -104.890285   -20.644718   -10.611366    -8.079168    -8.075208    -1.416284    -1.063240    -0.723520    -0.606569    -0.469149

          11.1         12.1
      0.053274     0.104691

           1.2          2.2          3.2          4.2          5.2
     -8.074976    -0.613618    -0.444182     0.115350     0.197697


 HOMO      3.2    -0.444182 =     -12.0868eV
 LUMO     11.1     0.053274 =       1.4497eV
 LUMO-HOMO         0.497456 =      13.5365eV

 Orbitals saved in record  2100.2


 **********************************************************************************************************************************
 DATASETS  * FILE   NREC   LENGTH (MB)   RECORD NAMES
              1      19       44.40       500      610      700      900      950      970     1000      129      960     1100   
                                          VAR    BASINP    GEOM    SYMINP    ZMAT    AOBASIS   BASIS     P2S    ABASIS      S 
                                         1400     1410     1200     1210     1080     1600     1650     1300     1700   
                                           T        V       H0       H01     AOSYM     SMH    MOLCAS    ERIS     OPER   

              2       4        0.43       700     1000      520     2100   
                                         GEOM     BASIS   MCVARS     RHF  

 PROGRAMS   *        TOTAL    HF-SCF       INT
 CPU TIMES  *         2.48      0.82      1.51
 REAL TIME  *         1.12 SEC
 DISK USED  *        80.58 MB
 **********************************************************************************************************************************


 PROGRAM * CCSD (Closed-shell coupled cluster)     Authors: C. Hampel, H.-J. Werner, 1991, M. Deegan, P.J. Knowles, 1992

                                  CCSD-F12 implementation by  H.-J. Werner, 2007

                   Density fitting integral evaluation by F.R. Manby, 2003,2007, G. Knizia, 2010


 Basis set VDZ-F12/JKFIT generated.      Number of basis functions:   246 
 Basis set V5Z/JKFIT generated.          Number of basis functions:   410 
 Basis set AUG-CC-PWCV5Z/MP2FIT generated. Number of basis functions:   866 

 Convergence thresholds:  THRVAR = 1.00D-08  THRDEN = 1.00D-12

 CCSD(T)     terms to be evaluated (factor= 1.000)


 Number of core orbitals:           6 (   5   1 )
 Number of closed-shell orbitals:   7 (   5   2 )
 Number of external orbitals:      65 (  45  20 )

 Molecular orbitals read from record     2100.2  Type=RHF/CANONICAL  

 MP2-F12 correlation treatment (H.-J. Werner, 2006)
 ==================================================

 Using MP2-F12 with ansatz 3C(FIX)

 Using projected zeroth-order Hamiltonian (+Z)

 FOCKRIB=T FOCKRIC=T FOCKRIP=T CABSP=T CABSA=T CABSK=T CABSF=T GBC=F EBC=F DMAT=T NOFIK=T NOPAO=1 SOLVE=-1  USEPAO=0
 EXCH_A= T EXCH_B= F EXCH_C= F EXCH_P= F

 Geminal basis:    OPTFULL  GEM_TYPE=SLATER  BETA=1.0  NGEM=6

 Optimizing Gaussian exponents for each gem_beta

 Geminal optimization for beta= 1.0000
 Weight function:   m=0, omega= 1.4646

 Augmented Hessian optimization of geminal fit. Trust ratio= 0.40000
 Convergence reached after   2 iterations. Final gradient= 8.66D-16, Step= 4.23D-06, Delta= 1.28D-09

 Alpha:                 0.19532     0.81920     2.85917     9.50073    35.69989   197.79328
 Coeff:                 0.27070     0.30552     0.18297     0.10986     0.06810     0.04224


 Symmetry turned off. Reference energy:       -534.917220417453

 All pairs explicitly correlated. Number of r12-pairs:           28

 Excluding core orbitals from MO domains

 AO(A)-basis ORBITAL           loaded. Number of functions:      78
 RI(R)-basis V5Z/JKFIT         loaded. Number of functions:     410
 DF-basis VDZ-F12/JKFIT        loaded. Number of functions:     246

 Screening thresholds:   THRAO=  1.00D-10  THRMO=  1.00D-09  THRPROD=  1.00D-09
                         THRSW=  1.00D-05  THROV=  1.00D-12  THRAOF12= 1.00D-08

 CPU time for Fock operators                      5.00 sec

 Construction of ABS:
 Smallest eigenvalue of S          9.06E-05  (threshold= 1.00E-08)
 Ratio eigmin/eigmax               1.54E-05  (threshold= 1.00E-09)
 Smallest eigenvalue of S kept     9.06E-05  (threshold= 9.06E-05, 0 functions deleted, 410 kept)

 Construction of CABS:
 Smallest eigenvalue of S          4.79E-08  (threshold= 1.00E-08)
 Ratio eigmin/eigmax               4.79E-08  (threshold= 1.00E-09)
 Smallest eigenvalue of S kept     4.79E-08  (threshold= 4.79E-08, 0 functions deleted, 410 kept)

 CPU time for CABS singles                        0.13 sec

 CABS-singles contribution of  -0.01163952 patched into reference energy.
 New reference energy        -534.92885993

 AO(A)-basis ORBITAL           loaded. Number of functions:      78
 RI(R)-basis V5Z/JKFIT         loaded. Number of functions:     410
 DF-basis AUG-CC-PWCV5Z/MP2FIT loaded. Number of functions:     866

 Screening thresholds:   THRAO=  1.00D-10  THRMO=  1.00D-09  THRPROD=  1.00D-09
                         THRSW=  1.00D-05  THROV=  1.00D-12  THRAOF12= 1.00D-08

 CPU time for 3-index integral evaluation         3.08 sec
 CPU time for first  half transformation          0.19 sec (10880.2 MFLOP/sec)
 CPU time for second half transformation          0.01 sec ( 8604.4 MFLOP/sec)
 CPU time for sorting                             0.02 sec
 CPU time for fitting                             0.40 sec (13832.9 MFLOP/sec)
 CPU time for tilde quantities                    0.38 sec (16356.9 MFLOP/sec)
 CPU time for assembly                            1.21 sec (19628.3 MFLOP/sec)
 CPU time for tranop_f12                          1.47 sec ( 8625.7 MFLOP/sec)
 CPU time for f12 integrals (total)              14.05 sec, Elapsed time:      9.88 sec
 CPU time for f12 matrices (total)                0.49 sec, Elapsed time:      0.08 sec

 Diagonal F12 approximation with fixed coefficients:  TSING= 0.500,  TTRIP= 0.250 (scaled by -1/beta)

 DF-MP2-F12 energy corrections:
 ==============================
 Approx.                                    Singlet             Triplet             Total
 DF-MP2-F12/3*C(DX,FIX)                -0.093652503614     -0.017698829660     -0.111351333274
 DF-MP2-F12/3*C(FIX)                   -0.091934842567     -0.019576718609     -0.111511561176
 DF-MP2-F12/3C(FIX)                    -0.091951801969     -0.020352013048     -0.112303815017

 DF-MP2-F12 correlation energies:
 ================================
 Approx.                                    Singlet             Triplet             Ecorr            Total Energy
 DF-MP2                                -0.238774722306     -0.151856106254     -0.390630828560   -535.319490761603
 DF-MP2-F12/3*C(DX,FIX)                -0.332427225920     -0.169554935914     -0.501982161834   -535.430842094876
 DF-MP2-F12/3*C(FIX)                   -0.330709564873     -0.171432824863     -0.502142389736   -535.431002322778
 DF-MP2-F12/3C(FIX)                    -0.330726524275     -0.172208119302     -0.502934643577   -535.431794576620

 SCS-DF-MP2 energies (F_SING= 1.20000  F_TRIP= 0.62222  F_PARALLEL= 0.33333):
 ============================================================================
 SCS-DF-MP2                            -0.381017910659   -535.309877843701
 SCS-DF-MP2-F12/3*C(DX,FIX)            -0.504413520117   -535.433273453159
 SCS-DF-MP2-F12/3*C(FIX)               -0.503520791096   -535.432380724138
 SCS-DF-MP2-F12/3C(FIX)                -0.504023547807   -535.432883480850

 Symmetry restored.
 Symmetry transformation completed.

 Number of N-1 electron functions:               7
 Number of N-2 electron functions:              28
 Number of singly external CSFs:               265
 Number of doubly external CSFs:             53390
 Total number of CSFs:                       53656

 Length of J-op  integral file:              87.61 MB
 Length of K-op  integral file:              91.58 MB
 Length of 3-ext integral record:             0.00 MB

 Memory could be reduced to 1.55 Mwords without degradation in triples

 Integral transformation finished. Total CPU:   0.28 sec, npass=  1  Memory used:   0.70 MW

 Reference energy:                   -534.92885993

 Adding F12 terms to K(Cij), methodcc=6,  factor= 1.0

 ITER.      SQ.NORM     CORR.ENERGY   TOTAL ENERGY   ENERGY CHANGE        DEN1      VAR(S)    VAR(P)  DIIS     TIME  TIME/IT
   1      1.12295765    -0.39597009  -535.32483002    -0.00533873     0.00546703  0.18D-02  0.20D-02  1  1    20.79     0.07
   2      1.13044288    -0.39547447  -535.32433441     0.00049562    -0.00804789  0.58D-04  0.27D-03  2  2    21.30     0.07
   3      1.13366069    -0.39574520  -535.32460513    -0.00027072    -0.00180624  0.18D-04  0.21D-04  3  3    21.73     0.07
   4      1.13511805    -0.39585020  -535.32471013    -0.00010500    -0.00077900  0.11D-05  0.19D-05  4  4    22.17     0.07
   5      1.13538311    -0.39585705  -535.32471699    -0.00000685    -0.00005275  0.27D-06  0.20D-06  5  5    22.61     0.07
   6      1.13544415    -0.39585388  -535.32471381     0.00000318    -0.00000096  0.47D-07  0.34D-07  6  6    23.04     0.07
   7      1.13546179    -0.39585368  -535.32471361     0.00000020    -0.00000258  0.11D-07  0.42D-08  6  2    23.48     0.07
   8      1.13546637    -0.39585339  -535.32471332     0.00000030    -0.00000010  0.22D-08  0.71D-09  6  1    23.92     0.07
   9      1.13546688    -0.39585358  -535.32471351    -0.00000019     0.00000023  0.67D-09  0.13D-09  6  4    24.36     0.07
  10      1.13546745    -0.39585367  -535.32471360    -0.00000009    -0.00000005  0.16D-09  0.41D-10  6  3    24.80     0.07
  11      1.13546739    -0.39585365  -535.32471358     0.00000002     0.00000001  0.24D-10  0.92D-11  6  6    25.24     0.07
  12      1.13546748    -0.39585365  -535.32471358     0.00000001     0.00000001  0.30D-11  0.14D-11  6  5    25.68     0.07
  13      1.13546752    -0.39585365  -535.32471358    -0.00000000     0.00000000  0.53D-12  0.27D-12  6  2    26.11     0.07
  14      1.13546754    -0.39585365  -535.32471358     0.00000000    -0.00000001  0.48D-13  0.56D-13  6  1    26.55     0.07
  15      1.13546754    -0.39585365  -535.32471358    -0.00000000    -0.00000000  0.15D-13  0.90D-14  6  4    26.98     0.07
  16      1.13546754    -0.39585365  -535.32471358     0.00000000    -0.00000000  0.35D-14  0.19D-14  6  3    27.42     0.07
  17      1.13546753    -0.39585365  -535.32471358    -0.00000000     0.00000000  0.61D-15  0.46D-15  6  5    27.86     0.07
  18      1.13546753    -0.39585365  -535.32471358     0.00000000     0.00000000  0.61D-16  0.35D-16  6  6    28.29     0.07
  19      1.13546753    -0.39585365  -535.32471358     0.00000000     0.00000000  0.15D-16  0.64D-17  6  2    28.74     0.07
  20      1.13546753    -0.39585365  -535.32471358    -0.00000000    -0.00000000  0.24D-17  0.92D-18  6  1    29.18     0.07
  21      1.13546753    -0.39585365  -535.32471358    -0.00000000    -0.00000000  0.24D-18  0.12D-18  6  3    29.63     0.07
  22      1.13546753    -0.39585365  -535.32471358    -0.00000000     0.00000000  0.90D-20  0.49D-20  6  4    30.08     0.07
  23      1.13546753    -0.39585365  -535.32471358     0.00000000     0.00000000  0.26D-20  0.11D-20  6  5    30.51     0.07
  24      1.13546753    -0.39585365  -535.32471358     0.00000000     0.00000000  0.23D-21  0.76D-22  6  6    30.96     0.07

 Norm of t1 vector:      0.05772957      S-energy:     0.00000000      T1 diagnostic:  0.01090986
                                                                       D1 diagnostic:  0.02299973
                                                                       D2 diagnostic:  0.16778789 (external, symmetry=1)

 Doubles amplitudes (print threshold =  0.500E-01):

         I         J         SYM. A    SYM. B    A         B      T(IJ, AB)

         4         4         1         1         4         4     -0.05098379

 Adding energy correction from Wij-K(Fij), methodcc=6  factor= 1.0

  CCSD correlation energy              -0.395853647353
  MP2-F12 correction (uncoupled)       -0.106736013775
  C*T doubles correction               -0.003346519982
  f12b correction                       0.012304420086


 Total CPU time for triples:      1.91 sec


 RESULTS
 =======

  Reference energy                   -534.917220417453
  F12 singles correction               -0.011639515589

 F12 singles corrections added to reference energy

  New reference energy               -534.928859933042

  F12a singlet correction              -0.090530085198
  F12a triplet correction              -0.019552448560
  F12a total correction                -0.110082533757

 F12a corrections for ansatz F12/3C(FIX) added to CCSD energy

  CCSD-F12a singlet pair energy        -0.350180521372
  CCSD-F12a triplet pair energy        -0.155755660533
  CCSD-F12a correlation energy         -0.505936181110

  Triples (T) contribution             -0.013985290995
  Total correlation energy             -0.519921472104

  CCSD-F12a total energy             -535.434796114152
  CCSD[T]-F12a energy                -535.449288259031
  CCSD-T-F12a energy                 -535.448551547664
 !CCSD(T)-F12a total energy          -535.448781405147

 F12b corrections for ansatz F12/3C(FIX) added to CCSD(T)-F12a energy

  CCSD-F12b singlet pair energy        -0.339041379941
  CCSD-F12b triplet pair energy        -0.154590381880
  CCSD-F12b correlation energy         -0.493631761024

  Triples (T) contribution             -0.013985290995
  Total correlation energy             -0.507617052019

  CCSD-F12b total energy             -535.422491694066
  CCSD[T]-F12b energy                -535.436983838946
  CCSD-T-F12b energy                 -535.436247127579
 !CCSD(T)-F12b total energy          -535.436476985061

 Timing summary (sec):

 STEP                 CPU(USER)    SYS     CPU(TOT)    WALL
 Transformation          0.30      0.01      0.31      0.06
 CCSD iterations        10.67      0.23     10.90      1.75
 Triples                 1.91      0.02      1.93      0.24
 MP2-F12                20.02      0.60     20.62     14.13
 F12b energy             0.20      0.01      0.21      0.04

 Program statistics:

 Available memory in ccsd:               499999654
 Min. memory needed in ccsd:                192407
 Max. memory used in ccsd:                  231492
 Max. memory used in cckext:                304083 (25 integral passes)



 **********************************************************************************************************************************
 DATASETS  * FILE   NREC   LENGTH (MB)   RECORD NAMES
              1      20       49.30       500      610      700      900      950      970     1000      129      960     1100   
                                          VAR    BASINP    GEOM    SYMINP    ZMAT    AOBASIS   BASIS     P2S    ABASIS      S 
                                         1400     1410     1200     1210     1080     1600     1650     1300     1700     1380   
                                           T        V       H0       H01     AOSYM     SMH    MOLCAS    ERIS     OPER     JKOP   

              2       6        0.47       700     1000      520     2100     7360     7350   
                                         GEOM     BASIS   MCVARS     RHF    F12ABS    EF12   

 PROGRAMS   *        TOTAL   CCSD(T)    HF-SCF       INT
 CPU TIMES  *        35.62     33.13      0.82      1.51
 REAL TIME  *        17.46 SEC
 DISK USED  *       432.99 MB
 **********************************************************************************************************************************
 SETTING XXX            =    "MMM"
 SETTING POINT          =         1.00000000                                  

 *** ### HOCl


 XXX       ROH          ROCL           ALPHA           ENERGY          POINT
 "MMM"   0.96446195   1.68888476   103.00000000   -535.448781405147   1.0000
                                                  

 CCSD(T)-F12/cc-pVDZ-F12 energy=   -535.436476985061

     CCSD(T)-F12          HF-SCF
   -535.43647699   -534.91722042
 **********************************************************************************************************************************
 Molpro calculation terminated
