
 Working directory              : /tmp/asmola/molpro.u8JxRcRwuT/
 Global scratch directory       : /tmp/asmola/molpro.u8JxRcRwuT/
 Wavefunction directory         : /home/asmola/wfu/
 Main file repository           : /tmp/asmola/molpro.u8JxRcRwuT/

 id        : uclcc

 Nodes                        nprocs
 vincent.theory.phys.ucl.ac.uk    1
 GA implementation: MPI file
 GA implementation (serial work in mppx): MPI file

 Using customized tuning parameters: mindgm=1; mindgv=20; mindgc=4; mindgr=1; noblas=0; minvec=7
 default implementation of scratch files=df  


 Variables initialized (1015), CPU time= 0.01 sec
 ***,HOCl SR correction using second-order DKH approach
 memory,500,m;
 
 geometry={angstrom
 o
 h , 1, roh
 cl , 1, rocl, 2, alpha
 }
 
 roh = 0.96446195
 rocl = 1.68888476
 alpha = 103.0
 
 basis=aug-cc-pV(Q+d)Z-DK
 
 hf
 frozen
 ccsd(t)
 E_0 = energy
 
 SET,DKROLL=1
 hf
 frozen
 ccsd(t)
 E_SR=energy-E_0
 
                                                                                 ! Output the energy
 xxx = "mmm"
 point = 1
 text ### HOCl
 table,xxx,roh,rocl,alpha,E_SR,energy,point
 DIGITS, 0, 8, 8, 8, 14, 12, 4
 Commands initialized (818), CPU time= 0.00 sec, 672 directives.
 Default parameters read. Elapsed time= 0.06 sec

 Checking input...
 Passed
1


                                         ***  PROGRAM SYSTEM MOLPRO  ***
                                       Copyright, TTI GmbH Stuttgart, 2015
                                    Version 2022.1 linked Mar  3 2022 23:20:00


 **********************************************************************************************************************************
 LABEL *   HOCl SR correction using second-order DKH approach                            
  (8 PROC) 64 bit serial version                                                         DATE: 29-Jul-25          TIME: 10:58:57  
 **********************************************************************************************************************************

 SHA1:             31073afc4d8441e10870424e0d77336a33bc4286
 **********************************************************************************************************************************

 Memory per process:       500 MW
 Total memory per node:    500 MW

 GA preallocation disabled
 GA check disabled

 Variable memory set to 500.0 MW

 SETTING ROH            =         0.96446195                                  
 SETTING ROCL           =         1.68888476                                  
 SETTING ALPHA          =       103.00000000                                  
 SETTING BASIS          =    AUG-CC-PV(Q+D)Z-DK


 Recomputing integrals since basis changed


 Using spherical harmonics

 Library entry O      S aug-cc-pVQZ-DK       selected for orbital group  1
 Library entry O      P aug-cc-pVQZ-DK       selected for orbital group  1
 Library entry O      D aug-cc-pVQZ-DK       selected for orbital group  1
 Library entry O      F aug-cc-pVQZ-DK       selected for orbital group  1
 Library entry O      G aug-cc-pVQZ-DK       selected for orbital group  1
 Library entry H      S aug-cc-pVQZ-DK       selected for orbital group  2
 Library entry H      P aug-cc-pVQZ-DK       selected for orbital group  2
 Library entry H      D aug-cc-pVQZ-DK       selected for orbital group  2
 Library entry H      F aug-cc-pVQZ-DK       selected for orbital group  2
 Library entry CL     S aug-cc-pVQZ-DK       selected for orbital group  3
 Library entry CL     P aug-cc-pVQZ-DK       selected for orbital group  3
 Library entry CL     D aug-cc-pv(q+d)z      selected for orbital group  3
 Library entry CL     F aug-cc-pv(q+d)z      selected for orbital group  3
 Library entry CL     G aug-cc-pv(q+d)z      selected for orbital group  3


 PROGRAM * SEWARD (Integral evaluation for generally contracted gaussian basis sets)     Author: Roland Lindh, 1990

 Geometry written to block  1 of record 700

 Orientation using atomic masses  
 Molecule type: Asymmetric top
 Symmetry elements: X
 Rotational constants:      14.7760974     15.1401499    614.5055928 GHz  (calculated with average atomic masses)

 Point group  Cs  



 ATOMIC COORDINATES

 NR  ATOM    CHARGE       X              Y              Z

   1  O       8.00    0.000000000    0.118821474   -2.145960667
   2  H       1.00    0.000000000   -1.639489684   -2.625647468
   3  CL     17.00    0.000000000   -0.007011115    1.043087417

 Bond lengths in Bohr (Angstrom)

 1-2  1.822568943  1-3  3.191529652
     ( 0.964461950)     ( 1.688884760)

 Bond angles

  2-1-3  103.00000000

 NUCLEAR CHARGE:                   26
 NUMBER OF PRIMITIVE AOS:         318
 NUMBER OF SYMMETRY AOS:          258
 NUMBER OF CONTRACTIONS:          215   (  136A'  +   79A"  )
 NUMBER OF INNER CORE ORBITALS:     1   (    1A'  +    0A"  )
 NUMBER OF OUTER CORE ORBITALS:     5   (    4A'  +    1A"  )
 NUMBER OF VALENCE ORBITALS:        9   (    7A'  +    2A"  )


 NUCLEAR REPULSION ENERGY   51.23575142


 Eigenvalues of metric

         1 0.724E-04 0.149E-03 0.192E-03 0.244E-03 0.351E-03 0.393E-03 0.506E-03 0.772E-03
         2 0.385E-03 0.130E-02 0.299E-02 0.804E-02 0.111E-01 0.142E-01 0.181E-01 0.250E-01


 Contracted 2-electron integrals neglected if value below      1.0D-11
