
 Working directory              : /tmp/asmola/molpro.CTyi59NWuL/
 Global scratch directory       : /tmp/asmola/molpro.CTyi59NWuL/
 Wavefunction directory         : /home/asmola/wfu/
 Main file repository           : /tmp/asmola/molpro.CTyi59NWuL/

 id        : uclcc

 Nodes                        nprocs
 vincent.theory.phys.ucl.ac.uk    1
 GA implementation: MPI file
 GA implementation (serial work in mppx): MPI file

 Using customized tuning parameters: mindgm=1; mindgv=20; mindgc=4; mindgr=1; noblas=0; minvec=7
 default implementation of scratch files=df  


 Variables initialized (1015), CPU time= 0.00 sec
 ***,HOCl Ground State Energy with CCSD(T)-F12 and aug-cc-pVQZ-F12
 memory,500,m;
 
 geometry={angstrom
 o
 h , 1, roh
 cl , 1, rocl, 2, alpha
 }
 
 roh = 0.96446195
 rocl = 1.68888476
 alpha = 103.0
 
 basis=cc-pVQZ-DK
 
 SET,DKROLL=1
 hf
 frozen
 ccsd(t)
 
 
 Commands initialized (818), CPU time= 0.00 sec, 672 directives.
 Default parameters read. Elapsed time= 0.06 sec

 Checking input...
 Passed
1


                                         ***  PROGRAM SYSTEM MOLPRO  ***
                                       Copyright, TTI GmbH Stuttgart, 2015
                                    Version 2022.1 linked Mar  3 2022 23:20:00


 **********************************************************************************************************************************
 LABEL *   HOCl Ground State Energy with CCSD(T)-F12 and aug-cc-pVQZ-F12                 
  (8 PROC) 64 bit serial version                                                         DATE: 19-Jul-25          TIME: 15:21:21  
 **********************************************************************************************************************************

 SHA1:             31073afc4d8441e10870424e0d77336a33bc4286
 **********************************************************************************************************************************

 Memory per process:       500 MW
 Total memory per node:    500 MW

 GA preallocation disabled
 GA check disabled

 Variable memory set to 500.0 MW

 SETTING ROH            =         0.96446195                                  
 SETTING ROCL           =         1.68888476                                  
 SETTING ALPHA          =       103.00000000                                  
 SETTING BASIS          =    CC-PVQZ-DK
 SETTING DKROLL         =         1.00000000                                  


 Recomputing integrals since basis changed


 Using spherical harmonics

 Library entry O      S cc-pVQZ-DK           selected for orbital group  1
 Library entry O      P cc-pVQZ-DK           selected for orbital group  1
 Library entry O      D cc-pVQZ-DK           selected for orbital group  1
 Library entry O      F cc-pVQZ-DK           selected for orbital group  1
 Library entry O      G cc-pVQZ-DK           selected for orbital group  1
 Library entry H      S cc-pVQZ-DK           selected for orbital group  2
 Library entry H      P cc-pVQZ-DK           selected for orbital group  2
 Library entry H      D cc-pVQZ-DK           selected for orbital group  2
 Library entry H      F cc-pVQZ-DK           selected for orbital group  2
 Library entry CL     S cc-pVQZ-DK           selected for orbital group  3
 Library entry CL     P cc-pVQZ-DK           selected for orbital group  3
 Library entry CL     D cc-pVQZ-DK           selected for orbital group  3
 Library entry CL     F cc-pVQZ-DK           selected for orbital group  3
 Library entry CL     G cc-pVQZ-DK           selected for orbital group  3


 PROGRAM * SEWARD (Integral evaluation for generally contracted gaussian basis sets)     Author: Roland Lindh, 1990

 Geometry written to block  1 of record 700

 Orientation using atomic masses  
 Molecule type: Asymmetric top
 Symmetry elements: X
 Rotational constants:      14.7760974     15.1401499    614.5055928 GHz  (calculated with average atomic masses)

 Point group  Cs  



 ATOMIC COORDINATES

 NR  ATOM    CHARGE       X              Y              Z

   1  O       8.00    0.000000000    0.118821474   -2.145960667
   2  H       1.00    0.000000000   -1.639489684   -2.625647468
   3  CL     17.00    0.000000000   -0.007011115    1.043087417

 Bond lengths in Bohr (Angstrom)

 1-2  1.822568943  1-3  3.191529652
     ( 0.964461950)     ( 1.688884760)

 Bond angles

  2-1-3  103.00000000

 NUCLEAR CHARGE:                   26
 NUMBER OF PRIMITIVE AOS:         222
 NUMBER OF SYMMETRY AOS:          187
 NUMBER OF CONTRACTIONS:          144   (   93A'  +   51A"  )
 NUMBER OF INNER CORE ORBITALS:     1   (    1A'  +    0A"  )
 NUMBER OF OUTER CORE ORBITALS:     5   (    4A'  +    1A"  )
 NUMBER OF VALENCE ORBITALS:        9   (    7A'  +    2A"  )


 NUCLEAR REPULSION ENERGY   51.23575142

 One-electron integrals computed with SEWARD

 2nd-order Douglas-Kroll-Hess method activated. Optimal DKH parametrization is used.

 Computing Douglas-Kroll / X2C integrals

 AO integral compression algorithm  1   Integral accuracy      1.0D-11

     137.101 MB (compressed) written to integral file ( 50.7%)


 NUMBER OF SORTED TWO-ELECTRON INTEGRALS:   27822645.     BUFFER LENGTH:  32768
 NUMBER OF SEGMENTS:   2  SEGMENT LENGTH:   15994719      RECORD LENGTH: 524288

 Memory used in sort:      16.55 MW

 SORT1 READ    33770596. AND WROTE    26560663. INTEGRALS IN     77 RECORDS. CPU TIME:     0.27 SEC, REAL TIME:     0.39 SEC
 SORT2 READ    26560663. AND WROTE    27822645. INTEGRALS IN    523 RECORDS. CPU TIME:     0.52 SEC, REAL TIME:     0.61 SEC

 FILE SIZES:   FILE 1:   168.2 MBYTE,  FILE 4:   323.0 MBYTE,   TOTAL:    491.2 MBYTE

 OPERATOR DM      FOR CENTER  0  COORDINATES:    0.000000    0.000000    0.000000

 Eigenvalues of metric

         1 0.211E-03 0.307E-03 0.339E-03 0.416E-03 0.571E-03 0.155E-02 0.259E-02 0.644E-02
         2 0.422E-03 0.101E-01 0.129E-01 0.440E-01 0.604E-01 0.802E-01 0.116E+00 0.125E+00


 **********************************************************************************************************************************
 DATASETS  * FILE   NREC   LENGTH (MB)   RECORD NAMES
              1      23      137.57       500      610      700      900      950      970     1000      129      960     1700   
                                          VAR    BASINP    GEOM    SYMINP    ZMAT    AOBASIS   BASIS     P2S    ABASIS    OPER   
                                         1101     1401     1411     1412     1650     1100     1400     1410     1200     1210   
                                          SR      EKINR    POTR     PVPR    MOLCAS      S      EKIN      POT      H0       H01  
                                         1300     1080     1600   
                                         ERIS     AOSYM     SMH  

 PROGRAMS   *        TOTAL       INT
 CPU TIMES  *        11.82     11.71
 REAL TIME  *         5.08 SEC
 DISK USED  *       468.76 MB
 **********************************************************************************************************************************


 Program * Restricted Hartree-Fock

 Orbital guess generated from atomic densities. Full valence occupancy:   12   3

 Initial occupancy:  10   3

 NELEC=   26   SYM=1   MS2= 0   THRE=1.0D-08   THRD=3.2D-06   THRG=3.2D-06  HFMA2=F  DIIS_START=2   DIIS_MAX=10   DIIS_INCORE=F

 Level shifts:    0.00 (CLOSED)    0.00 (OPEN)    0.30 (GAP_MIN)

 ITER           ETOT              DE          GRAD        DDIFF     DIIS  NEXP   TIME(IT)  TIME(TOT)  DIAG
   1     -536.36733878    -536.36733878     0.00D+00     0.93D-01     0     0       0.48      0.92    start
   2     -536.39053644      -0.02319765     0.55D-02     0.63D-02     1     0       0.47      1.39    diag
   3     -536.39258494      -0.00204851     0.18D-02     0.17D-02     2     0       0.50      1.89    diag
   4     -536.39285085      -0.00026591     0.53D-03     0.67D-03     3     0       0.41      2.30    diag
   5     -536.39290329      -0.00005244     0.22D-03     0.21D-03     4     0       0.52      2.82    diag
   6     -536.39290843      -0.00000514     0.55D-04     0.60D-04     5     0       0.40      3.22    diag
   7     -536.39290905      -0.00000061     0.15D-04     0.28D-04     6     0       0.56      3.78    diag
   8     -536.39290914      -0.00000009     0.55D-05     0.13D-04     7     0       0.42      4.20    fixocc
   9     -536.39290914      -0.00000001     0.15D-05     0.42D-05     8     0       0.48      4.68    diag
  10     -536.39290914      -0.00000000     0.33D-06     0.78D-06     9     0       0.51      5.19    diag/orth
  11     -536.39290914      -0.00000000     0.95D-07     0.15D-06     0     0       0.51      5.70    diag

 Final occupancy:  10   3

 !RHF STATE 1.1 Energy               -536.392909144878
  RHF One-electron energy            -842.961681070029
  RHF Two-electron energy             255.333020501914
  RHF Kinetic energy                  545.408936557847
  RHF Nuclear energy                   51.235751423237
  RHF Virial quotient                  -0.983469234168

 !RHF STATE 1.1 Dipole moment           0.00000000    -0.62987757    -0.12623659
 Dipole moment /Debye                   0.00000000    -1.60098910    -0.32086142

 Orbital energies:

           1.1          2.1          3.1          4.1          5.1          6.1          7.1          8.1          9.1         10.1
   -105.263720   -20.653888   -10.675803    -8.077924    -8.075170    -1.413812    -1.066162    -0.720464    -0.603031    -0.467136

          11.1         12.1
      0.084009     0.142392

           1.2          2.2          3.2          4.2          5.2
     -8.075011    -0.612858    -0.442844     0.349408     0.487111


 HOMO      3.2    -0.442844 =     -12.0504eV
 LUMO     11.1     0.084009 =       2.2860eV
 LUMO-HOMO         0.526852 =      14.3364eV

 Orbitals saved in record  2100.2


 **********************************************************************************************************************************
 DATASETS  * FILE   NREC   LENGTH (MB)   RECORD NAMES
              1      23      137.57       500      610      700      900      950      970     1000      129      960     1700   
                                          VAR    BASINP    GEOM    SYMINP    ZMAT    AOBASIS   BASIS     P2S    ABASIS    OPER   
                                         1101     1401     1411     1412     1650     1100     1400     1410     1200     1210   
                                          SR      EKINR    POTR     PVPR    MOLCAS      S      EKIN      POT      H0       H01  
                                         1300     1080     1600   
                                         ERIS     AOSYM     SMH  

              2       4        0.56       700     1000      520     2100   
                                         GEOM     BASIS   MCVARS     RHF  

 PROGRAMS   *        TOTAL    HF-SCF       INT
 CPU TIMES  *        17.56      5.73     11.71
 REAL TIME  *         7.51 SEC
 DISK USED  *       468.76 MB
 **********************************************************************************************************************************


 PROGRAM * CCSD (Closed-shell coupled cluster)     Authors: C. Hampel, H.-J. Werner, 1991, M. Deegan, P.J. Knowles, 1992


 Convergence thresholds:  THRVAR = 1.00D-08  THRDEN = 1.00D-06

 CCSD(T)     terms to be evaluated (factor= 1.000)


 Number of core orbitals:           6 (   5   1 )
 Number of closed-shell orbitals:   7 (   5   2 )
 Number of external orbitals:     131 (  83  48 )

 Molecular orbitals read from record     2100.2  Type=RHF/CANONICAL  

 Number of N-1 electron functions:               7
 Number of N-2 electron functions:              28
 Number of singly external CSFs:               511
 Number of doubly external CSFs:            213437
 Total number of CSFs:                      213949

 Length of J-op  integral file:               0.00 MB
 Length of K-op  integral file:               0.80 MB
 Length of 3-ext integral record:             0.00 MB

 Memory could be reduced to 11.43 Mwords without degradation in triples

 Integral transformation finished. Total CPU:   2.70 sec, npass=  1  Memory used:   3.98 MW

 Reference energy:                   -536.39290914

 MP2 singlet pair energy:              -0.30611341
 MP2 triplet pair energy:              -0.17135716
 MP2 correlation energy:               -0.47747057
 MP2 total energy:                   -536.87037972

 SCS-MP2 correlation energy:           -0.47395832   (PS=  1.200000  PT=  0.333333)
 SCS-MP2 total energy:               -536.86686747
