
 Working directory              : /tmp/asmola/molpro.2JxHGZYZOJ/
 Global scratch directory       : /tmp/asmola/molpro.2JxHGZYZOJ/
 Wavefunction directory         : /home/asmola/wfu/
 Main file repository           : /tmp/asmola/molpro.2JxHGZYZOJ/

 id        : uclcc

 Nodes                        nprocs
 vincent.theory.phys.ucl.ac.uk    1
 GA implementation: MPI file
 GA implementation (serial work in mppx): MPI file

 Using customized tuning parameters: mindgm=1; mindgv=20; mindgc=4; mindgr=1; noblas=0; minvec=7
 default implementation of scratch files=df  


 Variables initialized (1015), CPU time= 0.01 sec
 ***,HOCl SR correction using second-order DKH approach
 memory,500,m;
 
 geometry={angstrom
 o
 h , 1, roh
 cl , 1, rocl, 2, alpha
 }
 
 roh = 0.96446195
 rocl = 1.68888476
 alpha = 180.0
 
 basis=aug-cc-pV(Q+d)Z-DK
 
 hf
 frozen
 ccsd(t)
 E_0 = energy
 
 SET,DKROLL=1
 hf
 frozen
 ccsd(t)
 E_SR=energy-E_0
 
                                                                                 ! Output the energy
 xxx = "mmm"
 point = 1
 text ### HOCl
 table,xxx,roh,rocl,alpha,E_SR,energy,point
 DIGITS, 0, 8, 8, 8, 14, 12, 4
 Commands initialized (818), CPU time= 0.00 sec, 672 directives.
 Default parameters read. Elapsed time= 0.06 sec

 Checking input...
 Passed
1


                                         ***  PROGRAM SYSTEM MOLPRO  ***
                                       Copyright, TTI GmbH Stuttgart, 2015
                                    Version 2022.1 linked Mar  3 2022 23:20:00


 **********************************************************************************************************************************
 LABEL *   HOCl SR correction using second-order DKH approach                            
  (12 PROC) 64 bit serial version                                                        DATE: 30-Jul-25          TIME: 10:40:21  
 **********************************************************************************************************************************

 SHA1:             31073afc4d8441e10870424e0d77336a33bc4286
 **********************************************************************************************************************************

 Memory per process:       500 MW
 Total memory per node:    500 MW

 GA preallocation disabled
 GA check disabled

 Variable memory set to 500.0 MW

 SETTING ROH            =         0.96446195                                  
 SETTING ROCL           =         1.68888476                                  
 SETTING ALPHA          =       180.00000000                                  
 SETTING BASIS          =    AUG-CC-PV(Q+D)Z-DK


 Recomputing integrals since basis changed


 Using spherical harmonics

 Library entry O      S aug-cc-pVQZ-DK       selected for orbital group  1
 Library entry O      P aug-cc-pVQZ-DK       selected for orbital group  1
 Library entry O      D aug-cc-pVQZ-DK       selected for orbital group  1
 Library entry O      F aug-cc-pVQZ-DK       selected for orbital group  1
 Library entry O      G aug-cc-pVQZ-DK       selected for orbital group  1
 Library entry H      S aug-cc-pVQZ-DK       selected for orbital group  2
 Library entry H      P aug-cc-pVQZ-DK       selected for orbital group  2
 Library entry H      D aug-cc-pVQZ-DK       selected for orbital group  2
 Library entry H      F aug-cc-pVQZ-DK       selected for orbital group  2
 Library entry CL     S aug-cc-pVQZ-DK       selected for orbital group  3
 Library entry CL     P aug-cc-pVQZ-DK       selected for orbital group  3
 Library entry CL     D aug-cc-pv(q+d)z      selected for orbital group  3
 Library entry CL     F aug-cc-pv(q+d)z      selected for orbital group  3
 Library entry CL     G aug-cc-pv(q+d)z      selected for orbital group  3


 PROGRAM * SEWARD (Integral evaluation for generally contracted gaussian basis sets)     Author: Roland Lindh, 1990

 Geometry written to block  1 of record 700

 Orientation using atomic masses  
 Molecule type: Linear
 Symmetry elements: X,Y
 Rotational constants:      14.0686474     14.0686474      0.0000000 GHz  (calculated with average atomic masses)

 Point group  C2v 



 ATOMIC COORDINATES

 NR  ATOM    CHARGE       X              Y              Z

   1  O       8.00    0.000000000    0.000000000    2.121836432
   2  H       1.00    0.000000000    0.000000000    3.944405375
   3  CL     17.00    0.000000000    0.000000000   -1.069693221

 Bond lengths in Bohr (Angstrom)

 1-2  1.822568943  1-3  3.191529652
     ( 0.964461950)     ( 1.688884760)

 Bond angles

  2-1-3  179.99999915

 NUCLEAR CHARGE:                   26
 NUMBER OF PRIMITIVE AOS:         318
 NUMBER OF SYMMETRY AOS:          258
 NUMBER OF CONTRACTIONS:          215   (   85A1  +   51B1  +   51B2  +   28A2  )
 NUMBER OF INNER CORE ORBITALS:     1   (    1A1  +    0B1  +    0B2  +    0A2  )
 NUMBER OF OUTER CORE ORBITALS:     5   (    3A1  +    1B1  +    1B2  +    0A2  )
 NUMBER OF VALENCE ORBITALS:        9   (    5A1  +    2B1  +    2B2  +    0A2  )


 NUCLEAR REPULSION ENERGY   50.39264400

 EXTRA SYMMETRY OF AOS IN SYMMETRY 1:   1 1 1 1 1 1 1 1 1 1   1 1 2 1 2 1 2 1 2 1   2 1 2 1 2 1 3 2 1 3   2 1 1 1 1 1 1 1 1 1
                                        1 2 1 2 1 2 1 2 1 2   1 1 1 1 1 1 1 1 1 1   1 1 1 1 2 1 2 1 2 1   2 1 2 1 2 1 2 1 2 1
                                        3 2 1 3 2
 EXTRA SYMMETRY OF AOS IN SYMMETRY 2:   1 1 1 1 1 1 1 1 1 1   2 1 2 1 2 1 2 1 2 1   1 1 1 1 1 1 1 2 1 2   1 1 1 1 1 1 1 1 1 1
                                        1 1 2 1 2 1 2 1 2 1   2
 EXTRA SYMMETRY OF AOS IN SYMMETRY 3:   1 1 1 1 1 1 1 1 1 1   2 1 2 1 2 1 2 1 2 1   1 1 1 1 1 1 1 2 1 2   1 1 1 1 1 1 1 1 1 1
                                        1 1 2 1 2 1 2 1 2 1   2
 EXTRA SYMMETRY OF AOS IN SYMMETRY 4:   1 1 1 1 1 1 1 1 2 1   2 1 1 1 1 1 1 1 1 1   1 1 1 1 1 2 1 2

 Eigenvalues of metric

         1 0.371E-04 0.983E-04 0.160E-03 0.188E-03 0.312E-03 0.524E-03 0.637E-03 0.846E-03
         2 0.369E-03 0.802E-03 0.151E-02 0.626E-02 0.776E-02 0.116E-01 0.198E-01 0.246E-01
         3 0.369E-03 0.802E-03 0.151E-02 0.626E-02 0.776E-02 0.116E-01 0.198E-01 0.246E-01
         4 0.177E-01 0.379E-01 0.475E-01 0.663E-01 0.125E+00 0.140E+00 0.269E+00 0.273E+00


 Contracted 2-electron integrals neglected if value below      1.0D-12
 AO integral compression algorithm  1   Integral accuracy      1.0D-12

     323.486 MB (compressed) written to integral file ( 47.7%)


 NUMBER OF SORTED TWO-ELECTRON INTEGRALS:   69130637.     BUFFER LENGTH:  32768
 NUMBER OF SEGMENTS:   5  SEGMENT LENGTH:   15997935      RECORD LENGTH: 524288

 Memory used in sort:      16.55 MW

 SORT1 READ    84716355. AND WROTE    51767987. INTEGRALS IN    150 RECORDS. CPU TIME:     1.06 SEC, REAL TIME:     1.28 SEC
 SORT2 READ    51767987. AND WROTE    69130637. INTEGRALS IN   1234 RECORDS. CPU TIME:     0.82 SEC, REAL TIME:     0.99 SEC

 FILE SIZES:   FILE 1:   354.5 MBYTE,  FILE 4:   629.2 MBYTE,   TOTAL:    983.7 MBYTE

 OPERATOR DM      FOR CENTER  0  COORDINATES:    0.000000    0.000000    0.000000


 **********************************************************************************************************************************
 DATASETS  * FILE   NREC   LENGTH (MB)   RECORD NAMES
              1      19      285.12       500      610      700      900      950      970     1000      129      960     1100   
                                          VAR    BASINP    GEOM    SYMINP    ZMAT    AOBASIS   BASIS     P2S    ABASIS      S 
                                         1400     1410     1200     1210     1080     1600     1650     1300     1700   
                                           T        V       H0       H01     AOSYM     SMH    MOLCAS    ERIS     OPER   

 PROGRAMS   *        TOTAL       INT
 CPU TIMES  *        48.02     47.93
 REAL TIME  *        12.43 SEC
 DISK USED  *       938.47 MB
 **********************************************************************************************************************************


 Program * Restricted Hartree-Fock

 Orbital guess generated from atomic densities. Full valence occupancy:    9   3   3   0

 Initial occupancy:   7   3   3   0

 NELEC=   26   SYM=1   MS2= 0   THRE=1.0D-08   THRD=3.2D-06   THRG=3.2D-06  HFMA2=F  DIIS_START=2   DIIS_MAX=10   DIIS_INCORE=F

 Level shifts:    0.00 (CLOSED)    0.00 (OPEN)    0.30 (GAP_MIN)

 ITER           ETOT              DE          GRAD        DDIFF     DIIS  NEXP   TIME(IT)  TIME(TOT)  DIAG
   1     -534.42446442    -534.42446442     0.00D+00     0.90D-01     0     0       0.34      0.57    start
   2     -534.44465872      -0.02019430     0.61D-02     0.73D-02     1     0       0.30      0.87    diag
   3     -534.44912338      -0.00446466     0.27D-02     0.26D-02     2     0       0.30      1.17    diag
   4     -534.44985494      -0.00073157     0.93D-03     0.74D-03     3     0       0.31      1.48    diag
   5     -534.44995675      -0.00010181     0.23D-03     0.31D-03     4     0       0.30      1.78    diag
   6     -534.44997649      -0.00001974     0.90D-04     0.15D-03     5     0       0.30      2.08    diag
   7     -534.44997734      -0.00000085     0.19D-04     0.39D-04     6     0       0.29      2.37    diag
   8     -534.44997735      -0.00000002     0.31D-05     0.51D-05     7     0       0.30      2.67    fixocc
   9     -534.44997735      -0.00000000     0.71D-06     0.11D-05     8     0       0.31      2.98    diag
  10     -534.44997735      -0.00000000     0.16D-06     0.15D-06     0     0       0.30      3.28    diag/orth

 Final occupancy:   7   3   3   0

 !RHF STATE 1.1 Energy               -534.449977353380
  RHF One-electron energy            -839.118511988619
  RHF Two-electron energy             254.275890639072
  RHF Kinetic energy                  544.132609870743
  RHF Nuclear energy                   50.392643996167
  RHF Virial quotient                  -0.982205380928

 !RHF STATE 1.1 Dipole moment           0.00000000     0.00000000     0.25264987
 Dipole moment /Debye                   0.00000000     0.00000000     0.64217192

 Orbital energies:

           1.1          2.1          3.1          4.1          5.1          6.1          7.1          8.1          9.1
   -104.647664   -20.563047   -10.620403    -8.095844    -1.354870    -1.075975    -0.703795     0.020019     0.036782

           1.2          2.2          3.2          4.2          5.2
     -8.092395    -0.582951    -0.435536     0.096586     0.154496

           1.3          2.3          3.3          4.3          5.3
     -8.092395    -0.582951    -0.435536     0.096586     0.154496

           1.4          2.4
      0.258480     0.530049


 HOMO      3.3    -0.435536 =     -11.8515eV
 LUMO      8.1     0.020019 =       0.5448eV
 LUMO-HOMO         0.455555 =      12.3963eV

 Orbitals saved in record  2100.2


 **********************************************************************************************************************************
 DATASETS  * FILE   NREC   LENGTH (MB)   RECORD NAMES
              1      19      285.12       500      610      700      900      950      970     1000      129      960     1100   
                                          VAR    BASINP    GEOM    SYMINP    ZMAT    AOBASIS   BASIS     P2S    ABASIS      S 
                                         1400     1410     1200     1210     1080     1600     1650     1300     1700   
                                           T        V       H0       H01     AOSYM     SMH    MOLCAS    ERIS     OPER   

              2       4        0.60       700     1000      520     2100   
                                         GEOM     BASIS   MCVARS     RHF  

 PROGRAMS   *        TOTAL    HF-SCF       INT
 CPU TIMES  *        51.32      3.30     47.93
 REAL TIME  *        15.13 SEC
 DISK USED  *       938.47 MB
 **********************************************************************************************************************************


 PROGRAM * CCSD (Closed-shell coupled cluster)     Authors: C. Hampel, H.-J. Werner, 1991, M. Deegan, P.J. Knowles, 1992


 Convergence thresholds:  THRVAR = 1.00D-08  THRDEN = 1.00D-06

 CCSD(T)     terms to be evaluated (factor= 1.000)


 Number of core orbitals:           6 (   4   1   1   0 )
 Number of closed-shell orbitals:   7 (   3   2   2   0 )
 Number of external orbitals:     202 (  78  48  48  28 )

 Molecular orbitals read from record     2100.2  Type=RHF/CANONICAL  

 Number of N-1 electron functions:               7
 Number of N-2 electron functions:              28
 Number of singly external CSFs:               426
 Number of doubly external CSFs:            256269
 Total number of CSFs:                      256696

 Length of J-op  integral file:               0.00 MB
 Length of K-op  integral file:               0.94 MB
 Length of 3-ext integral record:             0.00 MB

 Memory could be reduced to 20.69 Mwords without degradation in triples

 Integral transformation finished. Total CPU:   4.14 sec, npass=  1  Memory used:   2.77 MW

 Reference energy:                   -534.44997735

 MP2 singlet pair energy:              -0.30901152
 MP2 triplet pair energy:              -0.17223886
 MP2 correlation energy:               -0.48125038
 MP2 total energy:                   -534.93122773

 SCS-MP2 correlation energy:           -0.47798467   (PS=  1.200000  PT=  0.333333)
 SCS-MP2 total energy:               -534.92796202

 ITER.      SQ.NORM     CORR.ENERGY   TOTAL ENERGY   ENERGY CHANGE        DEN1      VAR(S)    VAR(P)  DIIS     TIME  TIME/IT
   1      1.13941769    -0.49532124  -534.94529859    -0.01407086    -0.00111942  0.21D-02  0.27D-02  1  1    23.00     1.98
   2      1.14967934    -0.49627975  -534.94625711    -0.00095851    -0.01085292  0.49D-04  0.39D-03  2  2    41.71     2.01
   3      1.15406996    -0.49637057  -534.94634792    -0.00009082    -0.00243699  0.26D-04  0.28D-04  3  3    60.02     2.01
   4      1.15553555    -0.49632291  -534.94630027     0.00004766    -0.00055384  0.17D-05  0.53D-05  4  4    78.46     2.01
   5      1.15599585    -0.49633245  -534.94630980    -0.00000953    -0.00008620  0.19D-06  0.10D-05  5  5    97.09     2.02
   6      1.15617843    -0.49632627  -534.94630362     0.00000618    -0.00002793  0.16D-07  0.17D-06  6  6   115.43     2.02
   7      1.15621686    -0.49632654  -534.94630389    -0.00000027    -0.00000212  0.79D-08  0.20D-07  6  2   133.18     2.01
   8      1.15621911    -0.49632758  -534.94630493    -0.00000104     0.00000120  0.75D-09  0.28D-08  6  1   152.79     2.03
   9      1.15621970    -0.49632767  -534.94630502    -0.00000009    -0.00000002  0.23D-09  0.26D-09  6  3   172.14     2.04
  10      1.15621831    -0.49632790  -534.94630526    -0.00000024     0.00000058  0.32D-10  0.36D-10  6  5   190.39     2.03

 Norm of t1 vector:      0.06153144      S-energy:     0.00000002      T1 diagnostic:  0.01162835
                                                                       D1 diagnostic:  0.02547306
                                                                       D2 diagnostic:  0.16496202 (external, symmetry=1)


 Total CPU time for triples:     24.86 sec


 RESULTS
 =======

  Reference energy                   -534.449977353380
  CCSD singlet pair energy             -0.340127653405
  CCSD triplet pair energy             -0.156200276482
  CCSD correlation energy              -0.496327904897

  Triples (T) contribution             -0.021669282474
  Total correlation energy             -0.517997187371

  CCSD total energy                  -534.946305258277
  CCSD[T] energy                     -534.968656397413
  CCSD-T energy                      -534.967678554275
 !CCSD(T) total energy               -534.967974540751

 Timing summary (sec):

 STEP                 CPU(USER)    SYS     CPU(TOT)    WALL
 Transformation          4.81      0.15      4.96      0.94
 CCSD iterations       185.79     20.86    206.65     20.38
 Triples                24.86      0.33     25.19      2.94

 Program statistics:

 Available memory in ccsd:               499999797
 Min. memory needed in ccsd:                840566
 Max. memory used in ccsd:                 1050983
 Max. memory used in cckext:               1211889 (10 integral passes)



 **********************************************************************************************************************************
 DATASETS  * FILE   NREC   LENGTH (MB)   RECORD NAMES
              1      20      345.27       500      610      700      900      950      970     1000      129      960     1100   
                                          VAR    BASINP    GEOM    SYMINP    ZMAT    AOBASIS   BASIS     P2S    ABASIS      S 
                                         1400     1410     1200     1210     1080     1600     1650     1300     1700     1380   
                                           T        V       H0       H01     AOSYM     SMH    MOLCAS    ERIS     OPER     JKOP   

              2       4        0.60       700     1000      520     2100   
                                         GEOM     BASIS   MCVARS     RHF  

 PROGRAMS   *        TOTAL   CCSD(T)    HF-SCF       INT
 CPU TIMES  *       266.85    215.50      3.30     47.93
 REAL TIME  *        39.42 SEC
 DISK USED  *       938.47 MB
 **********************************************************************************************************************************
 SETTING E_0            =      -534.96797454  AU                              
 SETTING DKROLL         =         1.00000000                                  

 2nd-order Douglas-Kroll-Hess method activated. Optimal DKH parametrization is used.

 Computing Douglas-Kroll / X2C integrals

 Time for one-electron integrals:       0.16 sec

 OPERATOR DM      FOR CENTER  0  COORDINATES:    0.000000    0.000000    0.000000

 EXTRA SYMMETRY OF AOS IN SYMMETRY 1:   1 1 1 1 1 1 1 1 1 1   1 1 2 1 2 1 2 1 2 1   2 1 2 1 2 1 3 2 1 3   2 1 1 1 1 1 1 1 1 1
                                        1 2 1 2 1 2 1 2 1 2   1 1 1 1 1 1 1 1 1 1   1 1 1 1 2 1 2 1 2 1   2 1 2 1 2 1 2 1 2 1
                                        3 2 1 3 2
 EXTRA SYMMETRY OF AOS IN SYMMETRY 2:   1 1 1 1 1 1 1 1 1 1   2 1 2 1 2 1 2 1 2 1   1 1 1 1 1 1 1 2 1 2   1 1 1 1 1 1 1 1 1 1
                                        1 1 2 1 2 1 2 1 2 1   2
 EXTRA SYMMETRY OF AOS IN SYMMETRY 3:   1 1 1 1 1 1 1 1 1 1   2 1 2 1 2 1 2 1 2 1   1 1 1 1 1 1 1 2 1 2   1 1 1 1 1 1 1 1 1 1
                                        1 1 2 1 2 1 2 1 2 1   2
 EXTRA SYMMETRY OF AOS IN SYMMETRY 4:   1 1 1 1 1 1 1 1 2 1   2 1 1 1 1 1 1 1 1 1   1 1 1 1 1 2 1 2

 Eigenvalues of metric

         1 0.371E-04 0.983E-04 0.160E-03 0.188E-03 0.312E-03 0.524E-03 0.637E-03 0.846E-03
         2 0.369E-03 0.802E-03 0.151E-02 0.626E-02 0.776E-02 0.116E-01 0.198E-01 0.246E-01
         3 0.369E-03 0.802E-03 0.151E-02 0.626E-02 0.776E-02 0.116E-01 0.198E-01 0.246E-01
         4 0.177E-01 0.379E-01 0.475E-01 0.663E-01 0.125E+00 0.140E+00 0.269E+00 0.273E+00


 **********************************************************************************************************************************
 DATASETS  * FILE   NREC   LENGTH (MB)   RECORD NAMES
              1      23      285.60       500      610      700      900      950      970     1000      129      960     1100   
                                          VAR    BASINP    GEOM    SYMINP    ZMAT    AOBASIS   BASIS     P2S    ABASIS      S 
                                         1400     1410     1200     1210     1080     1600     1650     1300     1700     1101   
                                         EKIN      POT      H0       H01     AOSYM     SMH    MOLCAS    ERIS     OPER      SR  
                                         1401     1411     1412   
                                         EKINR    POTR     PVPR   

              2       4        0.60       700     1000      520     2100   
                                         GEOM     BASIS   MCVARS     RHF  

 PROGRAMS   *        TOTAL       INT   CCSD(T)    HF-SCF       INT
 CPU TIMES  *       267.47      0.61    215.50      3.30     47.93
 REAL TIME  *        39.60 SEC
 DISK USED  *       938.47 MB
 **********************************************************************************************************************************


 Program * Restricted Hartree-Fock

 Molecular orbitals read from record     2100.2  Type=RHF/CANONICAL  

 Initial occupancy:   7   3   3   0

 NELEC=   26   SYM=1   MS2= 0   THRE=1.0D-08   THRD=3.2D-06   THRG=3.2D-06  HFMA2=F  DIIS_START=2   DIIS_MAX=10   DIIS_INCORE=F

 Level shifts:    0.00 (CLOSED)    0.00 (OPEN)    0.30 (GAP_MIN)

 ITER           ETOT              DE          GRAD        DDIFF     DIIS  NEXP   TIME(IT)  TIME(TOT)  DIAG
   1     -536.30343819    -536.30343819     0.00D+00     0.91D-01     0     0       0.27      0.28    start
   2     -536.31644888      -0.01301069     0.27D-01     0.22D-01     1     0       0.30      0.58    diag
   3     -536.31647145      -0.00002257     0.49D-03     0.87D-03     2     0       0.31      0.89    diag
   4     -536.31647334      -0.00000188     0.62D-04     0.10D-03     3     0       0.30      1.19    diag
   5     -536.31647350      -0.00000017     0.16D-04     0.24D-04     4     0       0.30      1.49    diag
   6     -536.31647353      -0.00000002     0.50D-05     0.60D-05     5     0       0.32      1.81    diag
   7     -536.31647353      -0.00000001     0.22D-05     0.26D-05     6     0       0.31      2.12    diag
   8     -536.31647353      -0.00000000     0.52D-06     0.64D-06     0     0       0.29      2.41    fixocc

 Final occupancy:   7   3   3   0

 !RHF STATE 1.1 Energy               -536.316473534976
  RHF One-electron energy            -841.212827080645
  RHF Two-electron energy             254.503709549499
  RHF Kinetic energy                  545.138339554185
  RHF Nuclear energy                   50.392643996170
  RHF Virial quotient                  -0.983817197619

 !RHF STATE 1.1 Dipole moment           0.00000000     0.00000000     0.24179203
 Dipole moment /Debye                   0.00000000     0.00000000     0.61457403

 Orbital energies:

           1.1          2.1          3.1          4.1          5.1          6.1          7.1          8.1          9.1
   -105.304505   -20.577583   -10.711054    -8.113249    -1.356712    -1.082168    -0.703451     0.019879     0.036406

           1.2          2.2          3.2          4.2          5.2
     -8.109741    -0.582176    -0.435071     0.096516     0.154625

           1.3          2.3          3.3          4.3          5.3
     -8.109741    -0.582176    -0.435071     0.096516     0.154625

           1.4          2.4
      0.258655     0.530320


 HOMO      3.3    -0.435071 =     -11.8389eV
 LUMO      8.1     0.019879 =       0.5409eV
 LUMO-HOMO         0.454950 =      12.3798eV

 Orbitals saved in record  2101.2


 **********************************************************************************************************************************
 DATASETS  * FILE   NREC   LENGTH (MB)   RECORD NAMES
              1      23      285.60       500      610      700      900      950      970     1000      129      960     1100   
                                          VAR    BASINP    GEOM    SYMINP    ZMAT    AOBASIS   BASIS     P2S    ABASIS      S 
                                         1400     1410     1200     1210     1080     1600     1650     1300     1700     1101   
                                         EKIN      POT      H0       H01     AOSYM     SMH    MOLCAS    ERIS     OPER      SR  
                                         1401     1411     1412   
                                         EKINR    POTR     PVPR   

              2       5        1.06       700     1000      520     2100     2101   
                                         GEOM     BASIS   MCVARS     RHF      RHF  

 PROGRAMS   *        TOTAL    HF-SCF       INT   CCSD(T)    HF-SCF       INT
 CPU TIMES  *       269.90      2.42      0.61    215.50      3.30     47.93
 REAL TIME  *        41.56 SEC
 DISK USED  *       938.47 MB
 **********************************************************************************************************************************


 PROGRAM * CCSD (Closed-shell coupled cluster)     Authors: C. Hampel, H.-J. Werner, 1991, M. Deegan, P.J. Knowles, 1992


 Convergence thresholds:  THRVAR = 1.00D-08  THRDEN = 1.00D-06

 CCSD(T)     terms to be evaluated (factor= 1.000)


 Number of core orbitals:           6 (   4   1   1   0 )
 Number of closed-shell orbitals:   7 (   3   2   2   0 )
 Number of external orbitals:     202 (  78  48  48  28 )

 Molecular orbitals read from record     2101.2  Type=RHF/CANONICAL (state 1.1)

 Number of N-1 electron functions:               7
 Number of N-2 electron functions:              28
 Number of singly external CSFs:               426
 Number of doubly external CSFs:            256269
 Total number of CSFs:                      256696

 Length of J-op  integral file:               0.00 MB
 Length of K-op  integral file:               0.94 MB
 Length of 3-ext integral record:             0.00 MB

 Memory could be reduced to 20.69 Mwords without degradation in triples

 Integral transformation finished. Total CPU:   4.11 sec, npass=  1  Memory used:   2.77 MW

 Reference energy:                   -536.31647353

 MP2 singlet pair energy:              -0.30922302
 MP2 triplet pair energy:              -0.17241359
 MP2 correlation energy:               -0.48163661
 MP2 total energy:                   -536.79811015

 SCS-MP2 correlation energy:           -0.47834719   (PS=  1.200000  PT=  0.333333)
 SCS-MP2 total energy:               -536.79482073

 ITER.      SQ.NORM     CORR.ENERGY   TOTAL ENERGY   ENERGY CHANGE        DEN1      VAR(S)    VAR(P)  DIIS     TIME  TIME/IT
   1      1.13928460    -0.49557994  -536.81205348    -0.01394333    -0.00098044  0.21D-02  0.27D-02  1  1    23.11     2.03
   2      1.14952214    -0.49652020  -536.81299374    -0.00094026    -0.01085290  0.49D-04  0.39D-03  2  2    41.97     2.05
   3      1.15389803    -0.49661065  -536.81308418    -0.00009044    -0.00242881  0.26D-04  0.28D-04  3  3    60.49     2.04
   4      1.15536266    -0.49656249  -536.81303602     0.00004816    -0.00055364  0.17D-05  0.53D-05  4  4    79.14     2.04
   5      1.15582564    -0.49657196  -536.81304549    -0.00000947    -0.00008670  0.19D-06  0.10D-05  5  5    97.73     2.04
   6      1.15600965    -0.49656572  -536.81303925     0.00000624    -0.00002805  0.16D-07  0.17D-06  6  6   116.31     2.04
   7      1.15604860    -0.49656600  -536.81303953    -0.00000028    -0.00000214  0.81D-08  0.20D-07  6  2   134.68     2.04
   8      1.15605084    -0.49656705  -536.81304059    -0.00000106     0.00000122  0.78D-09  0.29D-08  6  1   153.12     2.04
   9      1.15605143    -0.49656715  -536.81304069    -0.00000010    -0.00000002  0.24D-09  0.27D-09  6  3   171.52     2.03
  10      1.15605002    -0.49656739  -536.81304093    -0.00000024     0.00000058  0.33D-10  0.37D-10  6  5   190.04     2.03

 Norm of t1 vector:      0.06160536      S-energy:     0.00000013      T1 diagnostic:  0.01164232
                                                                       D1 diagnostic:  0.02557070
                                                                       D2 diagnostic:  0.16495890 (external, symmetry=1)

 Total CPU time for triples:     24.81 sec


 RESULTS
 =======

  Reference energy                   -536.316473534976
  CCSD singlet pair energy             -0.340255349667
  CCSD triplet pair energy             -0.156312168670
  CCSD correlation energy              -0.496567390467

  Triples (T) contribution             -0.021680977863
  Total correlation energy             -0.518248368330

  CCSD total energy                  -536.813040925443
  CCSD[T] energy                     -536.835406764521
  CCSD-T energy                      -536.834425211399
 !CCSD(T) total energy               -536.834721903306

 Timing summary (sec):

 STEP                 CPU(USER)    SYS     CPU(TOT)    WALL
 Transformation          4.48      0.18      4.66      0.91
 CCSD iterations       185.87     20.93    206.80     20.39
 Triples                24.81      0.31     25.12      2.92

 Program statistics:

 Available memory in ccsd:               499999790
 Min. memory needed in ccsd:                840566
 Max. memory used in ccsd:                 1050983
 Max. memory used in cckext:               1211889 (10 integral passes)



 **********************************************************************************************************************************
 DATASETS  * FILE   NREC   LENGTH (MB)   RECORD NAMES
              1      24      345.74       500      610      700      900      950      970     1000      129      960     1100   
                                          VAR    BASINP    GEOM    SYMINP    ZMAT    AOBASIS   BASIS     P2S    ABASIS      S 
                                         1400     1410     1200     1210     1080     1600     1650     1300     1700     1101   
                                         EKIN      POT      H0       H01     AOSYM     SMH    MOLCAS    ERIS     OPER      SR  
                                         1401     1411     1412     1380   
                                         EKINR    POTR     PVPR     JKOP   

              2       5        1.06       700     1000      520     2100     2101   
                                         GEOM     BASIS   MCVARS     RHF      RHF  

 PROGRAMS   *        TOTAL   CCSD(T)    HF-SCF       INT   CCSD(T)    HF-SCF       INT
 CPU TIMES  *       485.12    215.19      2.42      0.61    215.50      3.30     47.93
 REAL TIME  *        65.83 SEC
 DISK USED  *       938.47 MB
 **********************************************************************************************************************************
 SETTING E_SR           =        -1.86674736  AU                              
 SETTING XXX            =    "MMM"
 SETTING POINT          =         1.00000000                                  

 *** ### HOCl


 XXX       ROH          ROCL           ALPHA         E_SR                  ENERGY          POINT
 "MMM"   0.96446195   1.68888476   180.00000000   -1.86674736255520   -536.834721903306   1.0000
                                                  

 CCSD(T)/aug-cc-pV(Q+D)Z-DK energy=   -536.834721903306

         CCSD(T)          HF-SCF         CCSD(T)          HF-SCF
   -536.83472190   -536.31647353   -534.96797454   -534.44997735
 **********************************************************************************************************************************
 Molpro calculation terminated
