
 Working directory              : /tmp/asmola/molpro.DZbYEponkQ/
 Global scratch directory       : /tmp/asmola/molpro.DZbYEponkQ/
 Wavefunction directory         : /home/asmola/wfu/
 Main file repository           : /tmp/asmola/molpro.DZbYEponkQ/

 id        : uclcc

 Nodes                        nprocs
 vincent.theory.phys.ucl.ac.uk    1
 GA implementation: MPI file
 GA implementation (serial work in mppx): MPI file

 Using customized tuning parameters: mindgm=1; mindgv=20; mindgc=4; mindgr=1; noblas=0; minvec=7
 default implementation of scratch files=df  


 Variables initialized (1015), CPU time= 0.00 sec
 ***,HOCl Ground State Energy with CCSD(T) and cc-pVQZ
 memory,500,m;
 
 geometry={angstrom
 o
 h , 1, roh
 cl , 1, rocl, 2, a
 }
 
 roh = 0.96
 rocl = 1.683
 a = 106.000000
 
                                                                                 ! Use the cc-pVQZ basis set
 basis=VQZ-f12
 
 hf
 runmp2 = {hf;mp2}
 
                                                                                 ! Use explicitly correlated F12 methods
                                                                            ! First, MP2-F12 (useful for initial electronic energy)
 {mp2-f12}
 
                                                                        ! If desired, perform CCSD(T)-F12 for more accurate results
 {ccsd(t)}
 
                                                                                 ! Output the energy
 
 Commands initialized (818), CPU time= 0.01 sec, 672 directives.
 Default parameters read. Elapsed time= 0.06 sec

 Checking input...
 Passed
1


                                         ***  PROGRAM SYSTEM MOLPRO  ***
                                       Copyright, TTI GmbH Stuttgart, 2015
                                    Version 2022.1 linked Mar  3 2022 23:20:00


 **********************************************************************************************************************************
 LABEL *   HOCl Ground State Energy with CCSD(T) and cc-pVQZ                             
  (8 PROC) 64 bit serial version                                                         DATE: 15-Jan-25          TIME: 12:44:43  
 **********************************************************************************************************************************

 SHA1:             31073afc4d8441e10870424e0d77336a33bc4286
 **********************************************************************************************************************************

 Memory per process:       500 MW
 Total memory per node:    500 MW

 GA preallocation disabled
 GA check disabled

 Variable memory set to 500.0 MW

 SETTING ROH            =         0.96000000                                  
 SETTING ROCL           =         1.68300000                                  
 SETTING A              =       106.00000000                                  
 SETTING BASIS          =    VQZ-F12


 Recomputing integrals since basis changed


 Using spherical harmonics

 Library entry O      S cc-pVQZ-F12          selected for orbital group  1
 Library entry O      P cc-pVQZ-F12          selected for orbital group  1
 Library entry O      D cc-pVQZ-F12          selected for orbital group  1
 Library entry O      F cc-pVQZ-F12          selected for orbital group  1
 Library entry O      G cc-pVQZ-F12          selected for orbital group  1
 Library entry H      S cc-pVQZ-F12          selected for orbital group  2
 Library entry H      P cc-pVQZ-F12          selected for orbital group  2
 Library entry H      D cc-pVQZ-F12          selected for orbital group  2
 Library entry H      F cc-pVQZ-F12          selected for orbital group  2
 Library entry CL     S cc-pVQZ-F12          selected for orbital group  3
 Library entry CL     P cc-pVQZ-F12          selected for orbital group  3
 Library entry CL     D cc-pVQZ-F12          selected for orbital group  3
 Library entry CL     F cc-pVQZ-F12          selected for orbital group  3
 Library entry CL     G cc-pVQZ-F12          selected for orbital group  3


 PROGRAM * SEWARD (Integral evaluation for generally contracted gaussian basis sets)     Author: Roland Lindh, 1990

 Geometry written to block  1 of record 700

 Orientation using atomic masses  
 Molecule type: Asymmetric top
 Symmetry elements: X
 Rotational constants:      14.8320513     15.1840120    639.8727295 GHz  (calculated with average atomic masses)

 Point group  Cs  



 ATOMIC COORDINATES

 NR  ATOM    CHARGE       X              Y              Z

   1  O       8.00    0.000000000    0.119107857   -2.136676324
   2  H       1.00    0.000000000   -1.603344568   -2.706106728
   3  CL     17.00    0.000000000   -0.008167972    1.041185017

 Bond lengths in Bohr (Angstrom)

 1-2  1.814137080  1-3  3.180409068
     ( 0.960000000)     ( 1.683000000)

 Bond angles

  2-1-3  106.00000000

 NUCLEAR CHARGE:                   26
 NUMBER OF PRIMITIVE AOS:         318
 NUMBER OF SYMMETRY AOS:          262
 NUMBER OF CONTRACTIONS:          217   (  139A'  +   78A"  )
 NUMBER OF INNER CORE ORBITALS:     1   (    1A'  +    0A"  )
 NUMBER OF OUTER CORE ORBITALS:     5   (    4A'  +    1A"  )
 NUMBER OF VALENCE ORBITALS:        9   (    7A'  +    2A"  )


 NUCLEAR REPULSION ENERGY   51.34575278


 Eigenvalues of metric

         1 0.283E-05 0.295E-05 0.264E-04 0.596E-04 0.176E-03 0.208E-03 0.412E-03 0.433E-03
         2 0.296E-05 0.442E-03 0.966E-03 0.433E-02 0.125E-01 0.133E-01 0.188E-01 0.243E-01


 Contracted 2-electron integrals neglected if value below      1.0D-12
 AO integral compression algorithm  1   Integral accuracy      1.0D-12

     735.576 MB (compressed) written to integral file ( 52.5%)


 NUMBER OF SORTED TWO-ELECTRON INTEGRALS:  142023526.     BUFFER LENGTH:  32768
 NUMBER OF SEGMENTS:   9  SEGMENT LENGTH:   15999111      RECORD LENGTH: 524288

 Memory used in sort:      16.56 MW

 SORT1 READ   174978798. AND WROTE   130714404. INTEGRALS IN    379 RECORDS. CPU TIME:     1.84 SEC, REAL TIME:     2.54 SEC
 SORT2 READ   130714404. AND WROTE   142023526. INTEGRALS IN   2806 RECORDS. CPU TIME:     2.31 SEC, REAL TIME:     2.89 SEC

 FILE SIZES:   FILE 1:   766.9 MBYTE,  FILE 4:  1589.7 MBYTE,   TOTAL:   2356.5 MBYTE

 OPERATOR DM      FOR CENTER  0  COORDINATES:    0.000000    0.000000    0.000000


 **********************************************************************************************************************************
 DATASETS  * FILE   NREC   LENGTH (MB)   RECORD NAMES
              1      19      604.80       500      610      700      900      950      970     1000      129      960     1100   
                                          VAR    BASINP    GEOM    SYMINP    ZMAT    AOBASIS   BASIS     P2S    ABASIS      S 
                                         1400     1410     1200     1210     1080     1600     1650     1300     1700   
                                           T        V       H0       H01     AOSYM     SMH    MOLCAS    ERIS     OPER   

 PROGRAMS   *        TOTAL       INT
 CPU TIMES  *       165.26    165.16
 REAL TIME  *        37.37 SEC
 DISK USED  *         2.20 GB
 **********************************************************************************************************************************


 Program * Restricted Hartree-Fock

 Orbital guess generated from atomic densities. Full valence occupancy:   12   3

 Initial occupancy:  10   3

 NELEC=   26   SYM=1   MS2= 0   THRE=1.0D-08   THRD=3.2D-06   THRG=3.2D-06  HFMA2=F  DIIS_START=2   DIIS_MAX=10   DIIS_INCORE=F

 Level shifts:    0.00 (CLOSED)    0.00 (OPEN)    0.30 (GAP_MIN)

 ITER           ETOT              DE          GRAD        DDIFF     DIIS  NEXP   TIME(IT)  TIME(TOT)  DIAG
   1     -534.90886623    -534.90886623     0.00D+00     0.62D-01     0     0      10.70     20.52    start
   2     -534.93238505      -0.02351882     0.46D-02     0.35D-02     1     0      11.07     31.59    diag
   3     -534.93450164      -0.00211659     0.15D-02     0.90D-03     2     0      11.58     43.17    diag
   4     -534.93477942      -0.00027778     0.43D-03     0.38D-03     3     0      66.00    109.17    diag
   5     -534.93483295      -0.00005353     0.18D-03     0.14D-03     4     0       4.92    114.09    diag
   6     -534.93483992      -0.00000697     0.55D-04     0.50D-04     5     0       5.30    119.39    diag
