
 Working directory              : /tmp/asmola/molpro.nWjBCfGa2n/
 Global scratch directory       : /tmp/asmola/molpro.nWjBCfGa2n/
 Wavefunction directory         : /home/asmola/wfu/
 Main file repository           : /tmp/asmola/molpro.nWjBCfGa2n/

 id        : uclcc

 Nodes                        nprocs
 vincent.theory.phys.ucl.ac.uk    1
 GA implementation: MPI file
 GA implementation (serial work in mppx): MPI file

 Using customized tuning parameters: mindgm=1; mindgv=20; mindgc=4; mindgr=1; noblas=0; minvec=7
 default implementation of scratch files=df  


 Variables initialized (1015), CPU time= 0.01 sec
 ***,HOCl Ground State Energy with CCSD(T)-F12 and aug-cc-pVQZ-F12
 memory,500,m;
 
 geometry={angstrom
 o
 h , 1, roh
 cl , 1, rocl, 2, alpha
 }
 
 roh = 0.96446195
 rocl = 1.68888476
 alpha = 103.0
 
 basis=aug-cc-pV(Q+d)Z
 
 hf
 ccsd(t)
 
 
 Commands initialized (818), CPU time= 0.00 sec, 672 directives.
 Default parameters read. Elapsed time= 0.05 sec

 Checking input...
 Passed
1


                                         ***  PROGRAM SYSTEM MOLPRO  ***
                                       Copyright, TTI GmbH Stuttgart, 2015
                                    Version 2022.1 linked Mar  3 2022 23:20:00


 **********************************************************************************************************************************
 LABEL *   HOCl Ground State Energy with CCSD(T)-F12 and aug-cc-pVQZ-F12                 
  (8 PROC) 64 bit serial version                                                         DATE: 25-Jun-25          TIME: 15:23:14  
 **********************************************************************************************************************************

 SHA1:             31073afc4d8441e10870424e0d77336a33bc4286
 **********************************************************************************************************************************

 Memory per process:       500 MW
 Total memory per node:    500 MW

 GA preallocation disabled
 GA check disabled

 Variable memory set to 500.0 MW

 SETTING ROH            =         0.96446195                                  
 SETTING ROCL           =         1.68888476                                  
 SETTING ALPHA          =       103.00000000                                  
 SETTING BASIS          =    AUG-CC-PV(Q+D)Z


 Recomputing integrals since basis changed


 Using spherical harmonics

 Library entry O      S aug-cc-pVQZ          selected for orbital group  1
 Library entry O      P aug-cc-pVQZ          selected for orbital group  1
 Library entry O      D aug-cc-pVQZ          selected for orbital group  1
 Library entry O      F aug-cc-pVQZ          selected for orbital group  1
 Library entry O      G aug-cc-pVQZ          selected for orbital group  1
 Library entry H      S aug-cc-pVQZ          selected for orbital group  2
 Library entry H      P aug-cc-pVQZ          selected for orbital group  2
 Library entry H      D aug-cc-pVQZ          selected for orbital group  2
 Library entry H      F aug-cc-pVQZ          selected for orbital group  2
 Library entry CL     S aug-cc-pv(q+d)z      selected for orbital group  3
 Library entry CL     P aug-cc-pv(q+d)z      selected for orbital group  3
 Library entry CL     D aug-cc-pv(q+d)z      selected for orbital group  3
 Library entry CL     F aug-cc-pv(q+d)z      selected for orbital group  3
 Library entry CL     G aug-cc-pv(q+d)z      selected for orbital group  3


 PROGRAM * SEWARD (Integral evaluation for generally contracted gaussian basis sets)     Author: Roland Lindh, 1990

 Geometry written to block  1 of record 700

 Orientation using atomic masses  
 Molecule type: Asymmetric top
 Symmetry elements: X
 Rotational constants:      14.7760974     15.1401499    614.5055928 GHz  (calculated with average atomic masses)

 Point group  Cs  



 ATOMIC COORDINATES

 NR  ATOM    CHARGE       X              Y              Z

   1  O       8.00    0.000000000    0.118821474   -2.145960667
   2  H       1.00    0.000000000   -1.639489684   -2.625647468
   3  CL     17.00    0.000000000   -0.007011115    1.043087417

 Bond lengths in Bohr (Angstrom)

 1-2  1.822568943  1-3  3.191529652
     ( 0.964461950)     ( 1.688884760)

 Bond angles

  2-1-3  103.00000000

 NUCLEAR CHARGE:                   26
 NUMBER OF PRIMITIVE AOS:         318
 NUMBER OF SYMMETRY AOS:          258
 NUMBER OF CONTRACTIONS:          215   (  136A'  +   79A"  )
 NUMBER OF INNER CORE ORBITALS:     1   (    1A'  +    0A"  )
 NUMBER OF OUTER CORE ORBITALS:     5   (    4A'  +    1A"  )
 NUMBER OF VALENCE ORBITALS:        9   (    7A'  +    2A"  )


 NUCLEAR REPULSION ENERGY   51.23575142


 Eigenvalues of metric

         1 0.724E-04 0.148E-03 0.190E-03 0.241E-03 0.344E-03 0.393E-03 0.507E-03 0.772E-03
         2 0.377E-03 0.130E-02 0.299E-02 0.804E-02 0.111E-01 0.142E-01 0.181E-01 0.250E-01


 Contracted 2-electron integrals neglected if value below      1.0D-11
 AO integral compression algorithm  1   Integral accuracy      1.0D-11

     676.332 MB (compressed) written to integral file ( 50.2%)


 NUMBER OF SORTED TWO-ELECTRON INTEGRALS:  136708646.     BUFFER LENGTH:  32768
 NUMBER OF SEGMENTS:   9  SEGMENT LENGTH:   15998004      RECORD LENGTH: 524288

 Memory used in sort:      16.56 MW

 SORT1 READ   168574916. AND WROTE   130067894. INTEGRALS IN    378 RECORDS. CPU TIME:     1.36 SEC, REAL TIME:     2.03 SEC
 SORT2 READ   130067894. AND WROTE   136708646. INTEGRALS IN   2580 RECORDS. CPU TIME:     1.44 SEC, REAL TIME:     1.83 SEC

 FILE SIZES:   FILE 1:   707.6 MBYTE,  FILE 4:  1585.5 MBYTE,   TOTAL:   2293.0 MBYTE

 OPERATOR DM      FOR CENTER  0  COORDINATES:    0.000000    0.000000    0.000000


 **********************************************************************************************************************************
 DATASETS  * FILE   NREC   LENGTH (MB)   RECORD NAMES
              1      19      558.24       500      610      700      900      950      970     1000      129      960     1100   
                                          VAR    BASINP    GEOM    SYMINP    ZMAT    AOBASIS   BASIS     P2S    ABASIS      S 
                                         1400     1410     1200     1210     1080     1600     1650     1300     1700   
                                           T        V       H0       H01     AOSYM     SMH    MOLCAS    ERIS     OPER   

 PROGRAMS   *        TOTAL       INT
 CPU TIMES  *        74.25     74.17
 REAL TIME  *        17.48 SEC
 DISK USED  *         2.14 GB
 **********************************************************************************************************************************


 Program * Restricted Hartree-Fock

 Orbital guess generated from atomic densities. Full valence occupancy:   12   3

 Initial occupancy:  10   3

 NELEC=   26   SYM=1   MS2= 0   THRE=1.0D-08   THRD=3.2D-06   THRG=3.2D-06  HFMA2=F  DIIS_START=2   DIIS_MAX=10   DIIS_INCORE=F

 Level shifts:    0.00 (CLOSED)    0.00 (OPEN)    0.30 (GAP_MIN)

 ITER           ETOT              DE          GRAD        DDIFF     DIIS  NEXP   TIME(IT)  TIME(TOT)  DIAG
   1     -534.90651361    -534.90651361     0.00D+00     0.63D-01     0     0       3.58      7.54    start
   2     -534.93005968      -0.02354606     0.46D-02     0.41D-02     1     0       3.67     11.21    diag
   3     -534.93218366      -0.00212398     0.15D-02     0.11D-02     2     0       3.68     14.89    diag
   4     -534.93245634      -0.00027268     0.42D-03     0.43D-03     3     0       3.67     18.56    diag
   5     -534.93251038      -0.00005405     0.18D-03     0.14D-03     4     0       3.63     22.19    diag
   6     -534.93251716      -0.00000677     0.53D-04     0.42D-04     5     0       3.63     25.82    diag
   7     -534.93251803      -0.00000087     0.14D-04     0.22D-04     6     0       3.60     29.42    diag
   8     -534.93251815      -0.00000011     0.49D-05     0.96D-05     7     0       3.62     33.04    fixocc
   9     -534.93251815      -0.00000001     0.14D-05     0.29D-05     8     0       3.62     36.66    diag
  10     -534.93251815      -0.00000000     0.33D-06     0.38D-06     0     0       3.66     40.32    diag/orth

 Final occupancy:  10   3

 !RHF STATE 1.1 Energy               -534.932518153870
  RHF One-electron energy            -840.937845365508
  RHF Two-electron energy             254.769575788402
  RHF Kinetic energy                  534.800163134271
  RHF Nuclear energy                   51.235751423237
  RHF Virial quotient                  -1.000247485002

 !RHF STATE 1.1 Dipole moment           0.00000000    -0.62146201    -0.13513197
 Dipole moment /Debye                   0.00000000    -1.57959887    -0.34347120

 Orbital energies:

           1.1          2.1          3.1          4.1          5.1          6.1          7.1          8.1          9.1         10.1
   -104.890241   -20.641316   -10.610398    -8.077807    -8.074944    -1.413599    -1.061426    -0.722307    -0.605231    -0.468531

          11.1         12.1
      0.025461     0.056224

           1.2          2.2          3.2          4.2          5.2
     -8.074790    -0.614515    -0.444233     0.097633     0.158250


 HOMO      3.2    -0.444233 =     -12.0882eV
 LUMO     11.1     0.025461 =       0.6928eV
 LUMO-HOMO         0.469694 =      12.7810eV

 Orbitals saved in record  2100.2


 **********************************************************************************************************************************
 DATASETS  * FILE   NREC   LENGTH (MB)   RECORD NAMES
              1      19      558.24       500      610      700      900      950      970     1000      129      960     1100   
                                          VAR    BASINP    GEOM    SYMINP    ZMAT    AOBASIS   BASIS     P2S    ABASIS      S 
                                         1400     1410     1200     1210     1080     1600     1650     1300     1700   
                                           T        V       H0       H01     AOSYM     SMH    MOLCAS    ERIS     OPER   

              2       4        0.78       700     1000      520     2100   
                                         GEOM     BASIS   MCVARS     RHF  

 PROGRAMS   *        TOTAL    HF-SCF       INT
 CPU TIMES  *       114.60     40.35     74.17
 REAL TIME  *        26.69 SEC
 DISK USED  *         2.14 GB
 **********************************************************************************************************************************


 PROGRAM * CCSD (Closed-shell coupled cluster)     Authors: C. Hampel, H.-J. Werner, 1991, M. Deegan, P.J. Knowles, 1992


 Convergence thresholds:  THRVAR = 1.00D-08  THRDEN = 1.00D-06

 CCSD(T)     terms to be evaluated (factor= 1.000)


 Number of core orbitals:           6 (   5   1 )
 Number of closed-shell orbitals:   7 (   5   2 )
 Number of external orbitals:     202 ( 126  76 )

 Molecular orbitals read from record     2100.2  Type=RHF/CANONICAL  

 Number of N-1 electron functions:               7
 Number of N-2 electron functions:              28
 Number of singly external CSFs:               782
 Number of doubly external CSFs:            506181
 Total number of CSFs:                      506964

 Length of J-op  integral file:               0.00 MB
 Length of K-op  integral file:               1.73 MB
 Length of 3-ext integral record:             0.00 MB

 Memory could be reduced to 40.93 Mwords without degradation in triples

 Integral transformation finished. Total CPU:  15.64 sec, npass=  1  Memory used:  13.09 MW

 Reference energy:                   -534.93251815

 MP2 singlet pair energy:              -0.31036233
 MP2 triplet pair energy:              -0.17248840
 MP2 correlation energy:               -0.48285073
 MP2 total energy:                   -535.41536888

 SCS-MP2 correlation energy:           -0.47976091   (PS=  1.200000  PT=  0.333333)
 SCS-MP2 total energy:               -535.41227907

 ITER.      SQ.NORM     CORR.ENERGY   TOTAL ENERGY   ENERGY CHANGE        DEN1      VAR(S)    VAR(P)  DIIS     TIME  TIME/IT
   1      1.14126717    -0.49656320  -535.42908136    -0.01371247    -0.00083663  0.19D-02  0.26D-02  1  1    29.25     1.88
   2      1.15111473    -0.49755831  -535.43007646    -0.00099511    -0.01082693  0.44D-04  0.36D-03  2  2    42.40     1.88
   3      1.15528944    -0.49759503  -535.43011318    -0.00003672    -0.00245978  0.20D-04  0.21D-04  3  3    57.09     1.94
   4      1.15660770    -0.49758906  -535.43010722     0.00000597    -0.00051272  0.17D-05  0.27D-05  4  4    71.34     1.96
   5      1.15695744    -0.49759158  -535.43010973    -0.00000252    -0.00008000  0.49D-06  0.27D-06  5  5    85.19     1.96
   6      1.15705976    -0.49758610  -535.43010425     0.00000548    -0.00001895  0.95D-07  0.42D-07  6  6    99.39     1.97
   7      1.15708130    -0.49758587  -535.43010402     0.00000023    -0.00000040  0.27D-07  0.67D-08  6  2   114.67     2.00
   8      1.15708872    -0.49758565  -535.43010381     0.00000022    -0.00000041  0.68D-08  0.15D-08  6  1   128.37     1.99

 Norm of t1 vector:      0.05935299      S-energy:     0.00000003      T1 diagnostic:  0.01121666
                                                                       D1 diagnostic:  0.02437920
                                                                       D2 diagnostic:  0.17074697 (external, symmetry=1)


 Total CPU time for triples:     40.62 sec


 RESULTS
 =======

  Reference energy                   -534.932518153870
  CCSD singlet pair energy             -0.341720080211
  CCSD triplet pair energy             -0.155865599441
  CCSD correlation energy              -0.497585651404

  Triples (T) contribution             -0.021941397315
  Total correlation energy             -0.519527048719

  CCSD total energy                  -535.430103805275
  CCSD[T] energy                     -535.452612481830
  CCSD-T energy                      -535.451792820677
 !CCSD(T) total energy               -535.452045202589

 Timing summary (sec):

 STEP                 CPU(USER)    SYS     CPU(TOT)    WALL
 Transformation         15.80      0.24     16.04      2.41
 CCSD iterations       112.65      3.31    115.96     15.94
 Triples                40.62      0.54     41.16      8.30

 Program statistics:

 Available memory in ccsd:               499999794
 Min. memory needed in ccsd:               1636012
 Max. memory used in ccsd:                 2051389
 Max. memory used in cckext:               2997782 ( 8 integral passes)



 **********************************************************************************************************************************
 DATASETS  * FILE   NREC   LENGTH (MB)   RECORD NAMES
              1      20      677.57       500      610      700      900      950      970     1000      129      960     1100   
                                          VAR    BASINP    GEOM    SYMINP    ZMAT    AOBASIS   BASIS     P2S    ABASIS      S 
                                         1400     1410     1200     1210     1080     1600     1650     1300     1700     1380   
                                           T        V       H0       H01     AOSYM     SMH    MOLCAS    ERIS     OPER     JKOP   

              2       4        0.78       700     1000      520     2100   
                                         GEOM     BASIS   MCVARS     RHF  

 PROGRAMS   *        TOTAL   CCSD(T)    HF-SCF       INT
 CPU TIMES  *       283.72    169.10     40.35     74.17
 REAL TIME  *        53.38 SEC
 DISK USED  *         2.14 GB
 **********************************************************************************************************************************

 CCSD(T)/aug-cc-pV(Q+D)Z energy=   -535.452045202589

         CCSD(T)          HF-SCF
   -535.45204520   -534.93251815
 **********************************************************************************************************************************
 Molpro calculation terminated
