 --invoking executable--
/home/asmola/.local/bin/xjoda


   *************************************************************************
         <<<     CCCCCC     CCCCCC   |||     CCCCCC     CCCCCC   >>>
       <<<      CCC        CCC       |||    CCC        CCC         >>>
      <<<      CCC        CCC        |||   CCC        CCC            >>>
    <<<        CCC        CCC        |||   CCC        CCC              >>>
      <<<      CCC        CCC        |||   CCC        CCC            >>>
       <<<      CCC        CCC       |||    CCC        CCC         >>>
         <<<     CCCCCC     CCCCCC   |||     CCCCCC     CCCCCC   >>>
   *************************************************************************

     ****************************************************************
     * CFOUR Coupled-Cluster techniques for Computational Chemistry *
     ****************************************************************
 

   Department of Chemistry                Institut fuer Physikalische Chemie
   University of Florida                  Universitaet Mainz
   Gainesville, FL 32611, USA             D-55099 Mainz, Germany

   Department of Chemistry                Fakultaet fuer Chemie und Biowiss.
   Johns Hopkins University               Karlsruher Institut fuer Technologie
   Baltimore, MD 21218, USA               D-76131 Karlsruhe, Germany

   Department of Chemistry                Department of Physical Chemistry
   Southern Methodist University          Eotvos Lorand University
   Dallas, TX 75275, USA                  H-1053 Budapest, Hungary

 
                       Version 2.1
 
                     vincent.theory.phys.ucl.ac.uk                     
                     Tue 28 Jan 14:18:58 GMT 2025                      
                     integer*8 version is running
 
********************************************************************************
*                          Input from ZMAT file                                *
********************************************************************************
Hypochlorous acid DBOC calculation                                              
O                                                                               
H 1 ROH                                                                         
CL 1 ROCL 2 A                                                                   
                                                                                
ROH=0.96000000                                                                  
ROCL=1.68300000                                                                 
A=114.00000                                                                     
                                                                                
                                                                                
*CFOUR(CALC=CCSD,BASIS=AUG-PVTZ,SCF_CONV=10                                     
CC_CONV=10,DBOC=ON,MEMORY=500000000)                                            
********************************************************************************
  @GTFLGS-I, Hessian will be transformed to curvilinear coordinates.
    -------------------------------------------------------------------
                    CFOUR Control Parameters 
    -------------------------------------------------------------------
        External           Internal           Value            Units
          Name               Name
    -------------------------------------------------------------------
       ABCDTYPE             IABCDT         STANDARD    [  0]    ***   
       ANHARMONIC           IANHAR         OFF         [  0]    ***   
       ANH_ALGORIT          IANALG         STANDARD    [  0]    ***   
       ANH_DERIVAT          IANDER         SECOND      [  1]    ***   
       ANH_MODE             ANHMOD         VIBRATION   [  0]    ***   
       ANH_STEPSIZ          ICUBST             50000          x 10-6  
       ANH_SYMMETR          IANHSM         ABELIAN     [  0]    ***   
       AO_LADDERS           IAOLAD         SINGLEPASS  [  1]    ***   
       AV_SCF               IAVSCF         OFF         [  0]    ***   
       BASIS                IBASIS         AUG-PVTZ    [ 34]    ***   
       BOTHVECTORS          BOTHVC         OFF         [  0]    ***   
       BOX_POTENT           IPIAB          OFF         [  0]    ***   
       BREIT                IBREIT         OFF         [  0]    ***   
       BRUCK_CONV           IBRTOL          10D-  4             ***   
       BRUECKNER            IBRKNR         OFF         [  0]    ***   
       BUFFERSIZE           IBUFFS              4096            ***   
       CACHE_RECS           ICHREC             10               ***   
       CALCLEVEL            ICLLVL         CCSD        [ 10]    ***   
       CCORBOPT             ICCORB         OFF         [  0]  x 0.01  
       CC_CONV              ICCCNV          10D- 10             ***   
       CC_EXPORDER          ICCEOR              5               ***   
       CC_EXTRAPOL          ICCEXT         DIIS        [  1]    ***   
       CC_GUESS             ICCGES         MP2         [  0]    ***   
       CC_MAXCYC            ICCCYC            100              cycles 
       CC_PROGRAM           ICCPRO         VCC         [  0]    ***   
       CHARGE               ICHRGE              0               ***   
       CHOLESKY             ICHOLE         OFF         [  0]    ***   
       CIS_CONV             ICISTL              5               ***   
       COMM_SIZE            IPSIZE            ***               ***   
       CONSTANT             ICONST         OLD         [  1]    ***   
       CONTINUUM            ICONTU         NONE        [  0]    ***   
       CONTRACTION          ICNTYP         GENERAL     [  1]    ***   
       COORDINATES          ICOORD         INTERNAL    [  0]    ***   
       CPHF_CONVER          ICPHFT          10D- 16             ***   
       CPHF_MAXCYC          ICPHFC             64              cycles 
       CUBIC                ICUBIC         OFF         [  0]    ***   
       CURVILINEAR          ICURVY         ON          [  1]    ***   
       DBOC                 IDBOC          ON          [  1]    ***   
       DCT                  IDCT           OFF         [  0]    ***   
       DERIV_LEV            IDRLVL         SECOND      [  2]    ***   
       DEVMEM_SIZE          IDVMEM          50000000           MByte  
       DIAG_MRCC            IEOMST          10D-  0             ***   
       DIFF_TYPE            IDIFTY         RELAXED     [  0]    ***   
       DIRECT               IDIRCT         OFF         [  0]    ***   
       DROPMO               IDRPMO      NONE         
       ECP                  IECP           OFF         [  0]    ***   
       EIGENVECTOR          IVEC                1               ***   
       EL_ANHARM            IELANH         OFF         [  0]    ***   
       EOMFOLLOW            IEOMSR         ENERGY      [  0]    ***   
       EOMIP                IEOMIP         OFF         [  0]    ***   
       EOMLEVEL             HBARFM         SAME        [  0]    ***   
       EOM_MRCC             IMRCCE         NEW         [  1]    ***   
       EOM_NONIT            EOMNON         OFF         [  0]    ***   
       EOM_NSING            IEOMSI          10D-  0             ***   
       EOM_NSTATES          IMRCCD         DAVIDSON    [  0]    ***   
       EOM_NTRIP            IEOMTR          10D-  0             ***   
       EOM_ORDER            IEXORD         ENERGY      [  0]    ***   
       EOM_PROPSTA          IEOMST              0               ***   
       ESTATE_CONV          IEXTOL          10D-  5             ***   
       ESTATE_DIAG          IEXDIG         ITERATIVE   [  0]    ***   
       ESTATE_LOCK          IESLOC         ON          [  1]    ***   
       ESTATE_MAXC          IEXMXC             40               ***   
       ESTATE_PROP          IEXPRP         OFF         [  0]    ***   
       EVAL_HESS            IRECAL              0            # of cyc.
       EXCITATION           IEXCIT              0               ***   
       EXCITE               IEXCIT         NONE        [  0]    ***   
       EXTERN_POT           IEXPOT         OFF         [  0]    ***   
       FCGRADNEW            IFCGNW         OFF         [  0]    ***   
       FC_FIELD             IFINFC              0             x 10-6  
       FD_CALTYPE           IFDCAL         GRADONLY    [  0]    ***   
       FD_PROJECT           IFDPRJ         OFF         [  1]    ***   
       FD_STEPSIZE          IDISFD              0            10-4 bohr
       FD_USEGROUP          IFDGRP         FULL        [  0]    ***   
       FILE_RECSIZ          IFLREC              4096           words  
       FINITE_PERT          IFIPER              0             x 10-6  
       FIXGEOM              IFIXGM         OFF         [  0]    ***   
       FOCK                 IFOCK          AO          [  1]    ***   
       FREQ_ALGORI          IVIALG         STANDARD    [  0]    ***   
       FROZEN_CORE          IFROCO         OFF         [  0]    ***   
       GAMMA_ABCD           IGABCD         STORE       [  0]    ***   
       GAMMA_ABCI           IGABCI         STORE       [  0]    ***   
       GENBAS_1             IGNBS1              0               ***   
       GENBAS_2             IGNBS2              0               ***   
       GENBAS_3             IGNBS3              0               ***   
       GENBAS_4             IGNBS4              0               ***   
       GEO_CONV             ICONTL              5              H/bohr 
       GEO_MAXCYC           IOPTCY             50               ***   
       GEO_MAXSTEP          IMXSTP            300            millibohr
       GEO_METHOD           INR            SINGLE_POINT[  5]    ***   
       GIAO                 IGIAO          OFF         [  1]    ***   
       GIMIC                IGIMIC         OFF         [  0]    ***   
       GRID                 IGRID          OFF         [  0]    ***   
       GRID_ALGO            IGALGO         SERIAL      [  0]    ***   
       GUESS                IGUESS         MOREAD      [  0]    ***   
       HBAR                 IHBAR          OFF         [  0]    ***   
       HESS_TYPE            IHESTP         SCF         [  0]    ***   
       HF2_FILE             IHF2Fl         USE         [  1]    ***   
       HFSTABILITY          ISTABL         OFF         [  0]    ***   
       INCORE               INCORE         OFF         [  0]    ***   
       INPUT_MRCC           IMRCC          ON          [  1]    ***   
       INTEGRALS            INTTYP         VMOL        [  1]    ***   
       JODA_PRINT           IJPRNT              0               ***   
       KEYWORD_OUT          IDMPKW         NO          [  0]    ***   
       LINDEP_TOL           ILINDP              8               ***   
       LINEQ_CONV           IZTACN          10D-  7           cycles  
       LINEQ_EXPOR          ILMAXD              5               ***   
       LINEQ_MAXCY          ILMAXC            100               ***   
       LINEQ_TYPE           ILTYPE         DIIS        [  1]    ***   
       LOCK_ORBOCC          ILOCOC         OFF         [  0]    ***   
       MEMORY_SIZE          IMEMSZ         500000000           words  
       MEM_UNIT             IMEMU          INTEGERWORDS[  0]    ***   
       MRCC                 IMRCCC         OFF         [  0]    ***   
       MULTIPLICTY          IMULTP              1               ***   
       NACOUPLING           IVCOUP         OFF         [  0]    ***   
       NEGEVAL              IDIE           ABORT       [  0]    ***   
       NEWNORM              INEWNO         OFF         [  0]    ***   
       NON-HF               INONHF         OFF         [  0]    ***   
       NTOP_TAMP            ITOPT2             15               ***   
       NUC_MODEL            INUCMO         POINT       [  0]    ***   
       OCCUPATION           IOCCU   ESTIMATED BY SCF 
       OPEN-SHELL           IOPEN          SPIN-ORBITAL[  0]    ***   
       OPTVIB               IOPTVB         OFF         [  0]    ***   
       ORBITALS             IORBTP         STANDARD    [  0]    ***   
       PARALLEL             IPARAL         ON          [  1]    ***   
       PARA_INT             IPINTS         ON          [  1]    ***   
       PARA_PRINT           IPPRIN              0               ***   
       PERT_ORB             IPTORB         STANDARD    [  0]    ***   
       POINTS               IGRDFD              0               ***   
       PRINT                IPRNT               0               ***   
       PROPS                IPROPS         OFF         [  0]    ***   
       PROP_INTEGR          IINTYP         INTERNAL    [  0]    ***   
       PSI                  IPSI           OFF         [  0]    ***   
       QC_ALG               IQCALG         FLM         [  0]    ***   
       QC_LINALG            IQCLIN         TRIDIAG     [  2]    ***   
       QC_MAXCYC            IQCMAX          10D-100           cycles  
       QC_MAXSCFCY          IQCMSC          10D- 15           cycles  
       QC_RTRUST            IQCRTR          10D-  0           x 10-3  
       QC_SKIPSCF           IQCSKI         OFF         [  0]    ***   
       QC_START             IQCSTA          10D-  1             ***   
       QRHFGUESS            IQGUES         OFF         [  0]    ***   
       QUARTIC              IQUART         OFF         [  0]    ***   
       RAMAN_INT            IRAMIN         OFF         [  0]    ***   
       RAMAN_ORB            IRAMRE         UNRELAXED   [  0]    ***   
       RDO                  IRDOFM         ON          [  1]    ***   
       REDUCE_REPR          REDREP         Ir          [  0]    ***   
       REFERENCE            IREFNC         RHF         [  0]    ***   
       RELATIVIST           IRELAT         OFF         [  0]    ***   
       RELAX_DENS           IRDENS         ON          [  1]    ***   
       RESET_FLAGS          IRESET         OFF         [  0]    ***   
       RESTART_CC           ICCRES         OFF         [  0]    ***   
       ROT_EVEC             ROTVEC              0               ***   
       SAVE_INTS            ISVINT         OFF         [  0]    ***   
       SCALE_ON             ISTCRT              0               ***   
       SCF_CONV             ISCFCV          10D- 10             ***   
       SCF_DAMPING          IDAMP               0             x 10-3  
       SCF_EXPORDE          IRPPOR              6               ***   
       SCF_EXPSTAR          IRPPLS              8               ***   
       SCF_EXTRAPO          IRPP           ON          [  1]    ***   
       SCF_MAXCYC           ISCFCY            150              cycles 
       SCF_NOSTOP           ISCFST         OFF         [  0]    ***   
       SCF_PRINT            ISCFPR              0               ***   
       SCF_PROG             ISCFPR         SCF         [  0]    ***   
       SD_FIELD             IFINSD              0             x 10-6  
       SOPERT               IPERSO         OFF         [  0]    ***   
       SPHERICAL            IDFGHI         ON          [  1]    ***   
       SPINORBIT            ISOCAL         OFF         [  0]    ***   
       SPINROTATIO          ISRCON         OFF         [  0]    ***   
       SPIN_FLIP            ISPFLP         OFF         [  0]    ***   
       SPIN_ORBIT           ISPORB         OFF         [  0]    ***   
       SPIN_SCAL            ISCSMP         OFF         [  0]    ***   
       STEEPSCALE           ISTPSC              1000          x 10-3  
       SUBGROUP             ISUBGP         DEFAULT     [  0]    ***   
       SUBGRPAXIS           ISBXYZ         X           [  0]    ***   
       SYMMETRY             ISYM           ON          [  0]    ***   
       SYM_CHECK            ISYMCK         OVERRIDE    [  1]    ***   
       T3_EXTRAPOL          IT3EXT         OFF         [  0]    ***   
       T4_EXTRAPOL          IT4EXP         OFF         [  0]    ***   
       TAMP_SUM             IEVERY              5               ***   
       TESTSUITE            ITESTS         OFF         [  0]    ***   
       THERMOCH             ITHERM         OFF         [  0]    ***   
       TOL_CHOLESK          ITOLCH          10D-  4             ***   
       TRANGRAD             IRESRM         OFF         [  0]    ***   
       TRANS_INV            ITRAIN         IGNORE      [  1]    ***   
       TREAT_PERT           ITREAT         SIMULTANEOUS[  0]    ***   
       TRIP_ALGORI          ITRALG         NORMAL      [  0]    ***   
       UIJ_THRESHO          IUIJTH              1               ***   
       UNITS                IUNITS         ANGSTROM    [  0]    ***   
       UNOS                 IUNOS          OFF         [  0]    ***   
       UPDATE_HESS          IHUPDT         ON          [  1]    ***   
       VIBPHASE             ISETPH         STANDARD    [  0]    ***   
       VIBRATION            IVIB           ANALYTIC    [  1]    ***   
       VIB_ALGORIT          IGEALG         STANDARD    [  0]    ***   
       VNATORB              IVNORB         OFF         [  0]    ***   
       VTRAN                IVTRAN         FULL/PARTIAL[  0]    ***   
       XFIELD               IXEFLD              0             x 10-6  
       XFORM_TOL            IXFTOL          10D- 11             ***   
       YFIELD               IYEFLD              0             x 10-6  
       ZFIELD               IZEFLD              0             x 10-6  
       ZSCALE_EXP           IZEXPS         OFF         [  0]    ***   
    -------------------------------------------------------------------
   3 entries found in Z-matrix 
   Job Title : Hypochlorous acid DBOC calculation                                              
   There are  3 unique internal coordinates.
   Of these,  0 will be optimized.
   User supplied Z-matrix: 
--------------------------------------------------------------------------------
       SYMBOL    BOND      LENGTH    ANGLE     ANGLE     DIHED     ANGLE
                  TO      (ANGST)    WRT      (DEG)      WRT      (DEG)
--------------------------------------------------------------------------------
        O    
        H          1         ROH  
        CL         1         ROCL       2        A    
                  *Initial values for internal coordinates* 
                      Name             Value
                        ROH             0.9600000000
                        ROCL            1.6830000000
                        A             114.0000000000
--------------------------------------------------------------------------------
   Rotational constants (in cm-1): 
          0.4928218640             0.5031978122            23.9001658071
   Rotational constants (in MHz): 
      14774.4298657863         15085.4930126100        716509.0457724668
********************************************************************************
   The full molecular point group is C s .
   The largest Abelian subgroup of the full molecular point group is C s .
   The computational point group is C s .
********************************************************************************
--------------------------------------------------------------------------------
   Analysis of internal coordinates specified by Z-matrix 
--------------------------------------------------------------------------------
   *The nuclear repulsion energy is   51.167493607696876 a.u.
   *There are   3 degrees of freedom within the tot. symm. molecular subspace.
   *Z-matrix requests optimization of   0 coordinates.
   *The optimization is constrained.
   *The following   3 parameters can have non-zero 
    derivatives within the totally symmetric subspace:
             A    [ 3]  ROH  [ 1]  ROCL [ 2]
   *The following   0 parameters are to be optimized:

   *The following coordinates must be varied in an  unconstrained optimization.
             A    [ 3]  ROH  [ 1]  ROCL [ 2]
--------------------------------------------------------------------------------


 ----------------------------------------------------------------
         Coordinates used in calculation (QCOMP) 
 ----------------------------------------------------------------
 Z-matrix   Atomic            Coordinates (in bohr)
  Symbol    Number           X              Y              Z
 ----------------------------------------------------------------
     O         8        -2.12252586     0.11899020     0.00000000
     H         1        -2.92752315    -1.50676319    -0.00000000
     CL       17         1.05522624    -0.01100077    -0.00000000
 ----------------------------------------------------------------
 
   Interatomic distance matrix (Angstroms) 
 
                 O             H             CL   
                [ 1]        [ 2]        [ 3]
  O    [ 1]     0.00000
  H    [ 2]     0.96000     0.00000
  CL   [ 3]     1.68300     2.25131     0.00000
 rotcon2
   Rotational constants (in cm-1): 
         23.9001658071             0.5031978122             0.4928218640
   Rotational constants (in MHz): 
     716509.0457724641         15085.4930126100         14774.4298657863
  ECPDATA file not present.   Using default ECPDATA. 
  @GTFLGS-I, Hessian will be transformed to curvilinear coordinates.
  There are  124 basis functions.
 @CHECKOUT-I, Total execution time (CPU/WALL):        0.22/       0.24 seconds.
--executable xjoda finished with status     0 in        0.28 seconds (walltime).
 --invoking executable--
/home/asmola/.local/bin/xvmol
 SERIAL VERSION OF MOLECULE STARTED
********************************************************************************
                    INPUT FROM MOL FILE
********************************************************************************
INTGRL        1    0    1    0    0    0    0    0    0                         
         *** CFOUR Program System (Release V0.1) ***                            
Hypochlorous acid DBOC calculation                                              
    3    1 Z          0.10E-08              0    0                              
   9999.00      3.00                                                            
          8.00000000    1    4    1    1    1    1                              
O #1  -2.122525860190883   0.118990197085795   0.000000000000001                
   11    5                                                                      
   15330.0000000000       5.080000000000000E-004 -1.150000000000000E-004        
  0.000000000000000E+000  0.000000000000000E+000  0.000000000000000E+000        
   2299.00000000000       3.929000000000000E-003 -8.950000000000000E-004        
  0.000000000000000E+000  0.000000000000000E+000  0.000000000000000E+000        
   522.400000000000       2.024300000000000E-002 -4.636000000000000E-003        
  0.000000000000000E+000  0.000000000000000E+000  0.000000000000000E+000        
   147.300000000000       7.918100000000000E-002 -1.872400000000000E-002        
  0.000000000000000E+000  0.000000000000000E+000  0.000000000000000E+000        
   47.5500000000000       0.230687000000000      -5.846300000000000E-002        
  0.000000000000000E+000  0.000000000000000E+000  0.000000000000000E+000        
   16.7600000000000       0.433118000000000      -0.136463000000000             
  0.000000000000000E+000  0.000000000000000E+000  0.000000000000000E+000        
   6.20700000000000       0.350260000000000      -0.175740000000000             
  0.000000000000000E+000  0.000000000000000E+000  0.000000000000000E+000        
   1.75200000000000       4.272800000000000E-002  0.160934000000000             
   1.00000000000000       0.000000000000000E+000  0.000000000000000E+000        
  0.688200000000000      -8.154000000000000E-003  0.603418000000000             
  0.000000000000000E+000  0.000000000000000E+000  0.000000000000000E+000        
  0.238400000000000       2.381000000000000E-003  0.378765000000000             
  0.000000000000000E+000   1.00000000000000       0.000000000000000E+000        
  7.376000000000001E-002  0.000000000000000E+000  0.000000000000000E+000        
  0.000000000000000E+000  0.000000000000000E+000   1.00000000000000             
    6    4                                                                      
   34.4600000000000       1.592800000000000E-002  0.000000000000000E+000        
  0.000000000000000E+000  0.000000000000000E+000                                
   7.74900000000000       9.974000000000000E-002  0.000000000000000E+000        
  0.000000000000000E+000  0.000000000000000E+000                                
   2.28000000000000       0.310492000000000       0.000000000000000E+000        
  0.000000000000000E+000  0.000000000000000E+000                                
  0.715600000000000       0.491026000000000        1.00000000000000             
  0.000000000000000E+000  0.000000000000000E+000                                
  0.214000000000000       0.336337000000000       0.000000000000000E+000        
   1.00000000000000       0.000000000000000E+000                                
  5.974000000000000E-002  0.000000000000000E+000  0.000000000000000E+000        
  0.000000000000000E+000   1.00000000000000                                     
    3    3                                                                      
   2.31400000000000        1.00000000000000       0.000000000000000E+000        
  0.000000000000000E+000                                                        
  0.645000000000000       0.000000000000000E+000   1.00000000000000             
  0.000000000000000E+000                                                        
  0.214000000000000       0.000000000000000E+000  0.000000000000000E+000        
   1.00000000000000                                                             
    2    2                                                                      
   1.42800000000000        1.00000000000000       0.000000000000000E+000        
  0.500000000000000       0.000000000000000E+000   1.00000000000000             
          1.00000000    1    3    1    1    1                                   
H #2  -2.927523154832221  -1.506763190983349  -0.000000000000003                
    6    4                                                                      
   33.8700000000000       6.068000000000000E-003  0.000000000000000E+000        
  0.000000000000000E+000  0.000000000000000E+000                                
   5.09500000000000       4.530800000000000E-002  0.000000000000000E+000        
  0.000000000000000E+000  0.000000000000000E+000                                
   1.15900000000000       0.202822000000000       0.000000000000000E+000        
  0.000000000000000E+000  0.000000000000000E+000                                
  0.325800000000000       0.503903000000000        1.00000000000000             
  0.000000000000000E+000  0.000000000000000E+000                                
  0.102700000000000       0.383421000000000       0.000000000000000E+000        
   1.00000000000000       0.000000000000000E+000                                
  2.526000000000000E-002  0.000000000000000E+000  0.000000000000000E+000        
  0.000000000000000E+000   1.00000000000000                                     
    3    3                                                                      
   1.40700000000000        1.00000000000000       0.000000000000000E+000        
  0.000000000000000E+000                                                        
  0.388000000000000       0.000000000000000E+000   1.00000000000000             
  0.000000000000000E+000                                                        
  0.102000000000000       0.000000000000000E+000  0.000000000000000E+000        
   1.00000000000000                                                             
    2    2                                                                      
   1.05700000000000        1.00000000000000       0.000000000000000E+000        
  0.247000000000000       0.000000000000000E+000   1.00000000000000             
         17.00000000    1    4    1    1    1    1                              
CL#3   1.055226242453840  -0.011000772074905  -0.000000000000000                
   16    6                                                                      
   456100.000000000       4.929700000000000E-005 -1.383040000000000E-005        
  0.000000000000000E+000  4.185460000000000E-006  0.000000000000000E+000        
  0.000000000000000E+000                                                        
   68330.0000000000       3.830290000000000E-004 -1.072790000000000E-004        
  0.000000000000000E+000  3.243950000000000E-005  0.000000000000000E+000        
  0.000000000000000E+000                                                        
   15550.0000000000       2.008540000000000E-003 -5.650830000000000E-004        
  0.000000000000000E+000  1.711050000000000E-004  0.000000000000000E+000        
  0.000000000000000E+000                                                        
   4405.00000000000       8.385580000000000E-003 -2.361350000000000E-003        
  0.000000000000000E+000  7.141760000000000E-004  0.000000000000000E+000        
  0.000000000000000E+000                                                        
   1439.00000000000       2.947030000000000E-002 -8.458860000000000E-003        
  0.000000000000000E+000  2.567050000000000E-003  0.000000000000000E+000        
  0.000000000000000E+000                                                        
   520.400000000000       8.783249999999999E-002 -2.596380000000000E-002        
  0.000000000000000E+000  7.885520000000000E-003  0.000000000000000E+000        
  0.000000000000000E+000                                                        
   203.100000000000       0.211473000000000      -6.863619999999999E-002        
  0.000000000000000E+000  2.108670000000000E-002  0.000000000000000E+000        
  0.000000000000000E+000                                                        
   83.9600000000000       0.365364000000000      -0.141874000000000             
  0.000000000000000E+000  4.422640000000000E-002  0.000000000000000E+000        
  0.000000000000000E+000                                                        
   36.2000000000000       0.340884000000000      -0.199319000000000             
  0.000000000000000E+000  6.516700000000000E-002  0.000000000000000E+000        
  0.000000000000000E+000                                                        
   15.8300000000000       0.102133000000000      -1.956620000000000E-002        
  0.000000000000000E+000  6.030120000000000E-003  0.000000000000000E+000        
  0.000000000000000E+000                                                        
   6.33400000000000       3.116750000000000E-003  0.499741000000000             
  0.000000000000000E+000 -0.206495000000000       0.000000000000000E+000        
  0.000000000000000E+000                                                        
   2.69400000000000       1.057510000000000E-003  0.563736000000000             
  0.000000000000000E+000 -0.405871000000000       0.000000000000000E+000        
  0.000000000000000E+000                                                        
  0.976800000000000      -3.780000000000000E-004  7.903250000000001E-002        
   1.00000000000000       7.595580000000000E-002  0.000000000000000E+000        
  0.000000000000000E+000                                                        
  0.431300000000000       1.561360000000000E-004 -8.350910000000000E-003        
  0.000000000000000E+000  0.725661000000000       0.000000000000000E+000        
  0.000000000000000E+000                                                        
  0.162500000000000      -5.141260000000000E-005  2.324560000000000E-003        
  0.000000000000000E+000  0.394423000000000        1.00000000000000             
  0.000000000000000E+000                                                        
  5.910000000000000E-002  0.000000000000000E+000  0.000000000000000E+000        
  0.000000000000000E+000  0.000000000000000E+000  0.000000000000000E+000        
   1.00000000000000                                                             
   10    5                                                                      
   663.300000000000       2.404480000000000E-003  0.000000000000000E+000        
 -6.521450000000000E-004  0.000000000000000E+000  0.000000000000000E+000        
   156.800000000000       1.921480000000000E-002  0.000000000000000E+000        
 -5.194450000000000E-003  0.000000000000000E+000  0.000000000000000E+000        
   49.9800000000000       8.850970000000000E-002  0.000000000000000E+000        
 -2.469380000000000E-002  0.000000000000000E+000  0.000000000000000E+000        
   18.4200000000000       0.256020000000000       0.000000000000000E+000        
 -7.281670000000000E-002  0.000000000000000E+000  0.000000000000000E+000        
   7.24000000000000       0.436927000000000       0.000000000000000E+000        
 -0.134030000000000       0.000000000000000E+000  0.000000000000000E+000        
   2.92200000000000       0.350334000000000       0.000000000000000E+000        
 -9.477420000000000E-002  0.000000000000000E+000  0.000000000000000E+000        
   1.02200000000000       5.854950000000000E-002   1.00000000000000             
  0.262289000000000       0.000000000000000E+000  0.000000000000000E+000        
  0.381800000000000      -4.584230000000000E-003  0.000000000000000E+000        
  0.564667000000000       0.000000000000000E+000  0.000000000000000E+000        
  0.130100000000000       2.269700000000000E-003  0.000000000000000E+000        
  0.341250000000000        1.00000000000000       0.000000000000000E+000        
  4.190000000000000E-002  0.000000000000000E+000  0.000000000000000E+000        
  0.000000000000000E+000  0.000000000000000E+000   1.00000000000000             
    4    4                                                                      
   4.61000000000000        1.00000000000000       0.000000000000000E+000        
  0.000000000000000E+000  0.000000000000000E+000                                
   1.01100000000000       0.000000000000000E+000   1.00000000000000             
  0.000000000000000E+000  0.000000000000000E+000                                
  0.339000000000000       0.000000000000000E+000  0.000000000000000E+000        
   1.00000000000000       0.000000000000000E+000                                
  0.130000000000000       0.000000000000000E+000  0.000000000000000E+000        
  0.000000000000000E+000   1.00000000000000                                     
    2    2                                                                      
  0.706000000000000        1.00000000000000       0.000000000000000E+000        
  0.312000000000000       0.000000000000000E+000   1.00000000000000             
FINISH                                                                          
 
********************************************************************************
 ONE- AND TWO-ELECTRON INTEGRALS OVER SYMMETRY-ADAPTED AOS ARE CALCULATED.

  SPHERICAL HARMONICS ARE USED.
  
  INTEGRALS LESS THAN  0.10E-13 ARE NEGLECTED.

  NUCLEAR REPULSION ENERGY :   51.1674936077 A.U.
  @MOLECU-I, ONE ELECTRON INTEGRALS (CPU/WALL):        0.04/       0.04 SECONDS.
  @TWOEL-I,    5908218 INTEGRALS OF SYMMETRY TYPE  I I I I
  @TWOEL-I,    5650236 INTEGRALS OF SYMMETRY TYPE  I J I J
  @TWOEL-I,    2920898 INTEGRALS OF SYMMETRY TYPE  I I J J
  @TWOEL-I, TOTAL NUMBER OF 2-E INTEGRALS   14479352.
  @MOLECU-I, TWO ELECTRON INTEGRALS (CPU/WALL):       32.76/       5.06 SECONDS.
 @CHECKOUT-I, Total execution time (CPU/WALL):       32.81/       5.12 seconds.

Running with 14 threads/proc

--executable xvmol finished with status     0 in        5.14 seconds (walltime).
 --invoking executable--
/home/asmola/.local/bin/xvmol2ja
 @GETMEM-I,  Allocated    3814 MB of main memory.
 @CHECKOUT-I, Total execution time (CPU/WALL):        0.10/       0.03 seconds.
--executable xvmol2ja finished with status     0 in        0.06 seconds (walltime).
 --invoking executable--
/home/asmola/.local/bin/xvscf
  There are  124 functions in the AO basis.

  There are 2 irreducible representations.

       Irrep        # of functions
         1                 82
         2                 42


  Parameters for SCF calculation: 
        SCF reference function:  RHF  
  Maximum number of iterations:  150
     Full symmetry point group: C s 
     Computational point group: C s 
        Initial density matrix: MOREAD                 
     SCF convergence tolerance: 10**(-10)
  DIIS convergence acceleration:  ON
          Latest start for DIIS:   8
                     DIIS order:   6

  Memory information:     774068 words required.
  Fock matrices are constructed from AO integral file.
 @GETMEM-I,  Allocated       5 MB of main memory.
  Initialization and symmetry analysis required      0.002 seconds.

  @INITGES-I, Occupancies from core Hamiltonian:

          Alpha population by irrep:  10    3
           Beta population by irrep:  10    3


 total no. of electrons in initial guess :  0.000000000000000E+000
  --------------------------------------------------------------------
  Iteration         Total Energy            Largest Density Difference
  --------------------------------------------------------------------
       0            51.167493607696876              0.0000000000D+00
   current occupation vector 
    10  3
    10  3
       1          -414.746268162768104              0.1579540693D+02
   current occupation vector 
    10  3
    10  3
       2          -338.046511028398015              0.1579083549D+02
   current occupation vector 
    10  3
    10  3
       3          -435.079940041531984              0.1057948357D+02
   current occupation vector 
    10  3
    10  3
       4          -336.096843650780329              0.1058039751D+02
   current occupation vector 
    10  3
    10  3
       5          -435.404448453104862              0.1051932166D+02
   current occupation vector 
    10  3
    10  3
       6          -336.051141559139921              0.1051932118D+02
   current occupation vector 
    10  3
    10  3
       7          -435.417604185112395              0.1051683333D+02
   current occupation vector 
    10  3
    10  3
       8          -336.049404316268692              0.1051683299D+02
   current occupation vector 
    10  3
    10  3
       9          -472.436463495381759              0.7891189483D+01
   current occupation vector 
    10  3
    10  3
      10          -486.720451961992467              0.2595782605D+01
   current occupation vector 
    10  3
    10  3
      11          -515.991413886950227              0.2231968039D+01
   current occupation vector 
    11  2
    11  2
      12          -532.216475777049823              0.1600759523D+01
   current occupation vector 
    10  3
    10  3
      13          -534.097230616131242              0.7107805131D+00
   current occupation vector 
    10  3
    10  3
      14          -534.815390652598921              0.9884809729D+00
   current occupation vector 
    10  3
    10  3
      15          -534.907360797546630              0.3685316398D+00
   current occupation vector 
    10  3
    10  3
      16          -534.917542885015564              0.5812209644D-01
   current occupation vector 
    10  3
    10  3
      17          -534.921349303974466              0.6289346092D-01
   current occupation vector 
    10  3
    10  3
      18          -534.921758621050571              0.2190826227D-01
   current occupation vector 
    10  3
    10  3
      19          -534.921831810591016              0.1012984729D-01
   current occupation vector 
    10  3
    10  3
      20          -534.921840913419260              0.4428725420D-02
   current occupation vector 
    10  3
    10  3
      21          -534.921841937343174              0.1442567802D-02
   current occupation vector 
    10  3
    10  3
      22          -534.921842235380041              0.1205049041D-02
   current occupation vector 
    10  3
    10  3
      23          -534.921842238185263              0.9543718054D-04
   current occupation vector 
    10  3
    10  3
      24          -534.921842238285763              0.1203654904D-04
   current occupation vector 
    10  3
    10  3
      25          -534.921842238294857              0.4780790383D-05
   current occupation vector 
    10  3
    10  3
      26          -534.921842238300883              0.2074017101D-05
   current occupation vector 
    10  3
    10  3
      27          -534.921842238303270              0.5448425369D-06
   current occupation vector 
    10  3
    10  3
      28          -534.921842238301110              0.1840926060D-06
   current occupation vector 
    10  3
    10  3
      29          -534.921842238301338              0.6875655020D-07
   current occupation vector 
    10  3
    10  3
      30          -534.921842238297245              0.7706449651D-07
   current occupation vector 
    10  3
    10  3
      31          -534.921842238303043              0.2571064744D-07
   current occupation vector 
    10  3
    10  3
      32          -534.921842238302247              0.5456347374D-08
   current occupation vector 
    10  3
    10  3
      33          -534.921842238303725              0.1289997914D-08
   current occupation vector 
    10  3
    10  3
      34          -534.921842238304635              0.2979927416D-09
   current occupation vector 
    10  3
    10  3
      35          -534.921842238300883              0.1066766675D-09
   current occupation vector 
    10  3
    10  3

  SCF has converged.

 Density matrix saved to file den.dat
 total electron number:   26.0000000000000     
     E(SCF)=      -534.921842238303270              0.4956590693D-10

  Eigenvector printing suppressed.

 @PUTMOS-I, Writing converged MOs to NEWMOS. 
 @PUTMOS-I, Symmetry   1 Full Blocks 20 Partial Blocksize   2
 @PUTMOS-I, Symmetry   2 Full Blocks 10 Partial Blocksize   2
 @PUTFOCK-I, Writing converged Fock matrix to NEWFOCK. 
 @PUTFOCK-I, Symmetry   1 Full Blocks 20 Partial Blocksize   2
 @PUTFOCK-I, Symmetry   2 Full Blocks 10 Partial Blocksize   2


 
  ORBITAL EIGENVALUES (ALPHA)  (1H = 27.2113834 eV)

       MO #        E(hartree)               E(eV)           FULLSYM    COMPSYM
       ----   --------------------   --------------------   -------   ---------
    1     1        -104.8948968032       -2854.3352536166     A'        A'  (1)
    2     2         -20.6363553182        -561.5437765419     A'        A'  (1)
    3     3         -10.6133403501        -288.8036734205     A'        A'  (1)
    4     4          -8.0806790433        -219.8864555785     A'        A'  (1)
    5     5          -8.0774207589        -219.7977931535     A'        A'  (1)
    6    83          -8.0772644062        -219.7935385798     A''       A'' (2)
    7     6          -1.4084894756         -38.3269471355     A'        A'  (1)
    8     7          -1.0658301844         -29.0027137862     A'        A'  (1)
    9     8          -0.7231621204         -19.6782417191     A'        A'  (1)
   10    84          -0.6112595690         -16.6332184894     A''       A'' (2)
   11     9          -0.6012857693         -16.3618176022     A'        A'  (1)
   12    10          -0.4655889920         -12.6693205683     A'        A'  (1)
   13    85          -0.4426287300         -12.0445400761     A''       A'' (2)
  +++++++++++++++++++++++++++++++++++++++++++++++++++++++++++++++++++++++++++++
   14    11           0.0280754507           0.7639718542     A'        A'  (1)
   15    12           0.0617981949           1.6816143760     A'        A'  (1)
   16    13           0.1105511684           3.0082502279     A'        A'  (1)
   17    86           0.1162600897           3.1635978763     A''       A'' (2)
   18    14           0.1396343230           3.7996430983     A'        A'  (1)
   19    15           0.1567407816           4.2651335019     A'        A'  (1)
   20    16           0.1729109447           4.7051460112     A'        A'  (1)
   21    17           0.1791805781           4.8757514077     A'        A'  (1)
   22    87           0.1873538922           5.0981585932     A''       A'' (2)
   23    18           0.2481123035           6.7514790177     A'        A'  (1)
   24    88           0.2619507599           7.1280425600     A''       A'' (2)
   25    19           0.3041830340           8.2772411632     A'        A'  (1)
   26    20           0.3219690443           8.7612231062     A'        A'  (1)
   27    89           0.3725935344          10.1387855180     A''       A'' (2)
   28    21           0.3878464835          10.5538393632     A'        A'  (1)
   29    90           0.4144655915          11.2781821170     A''       A'' (2)
   30    22           0.4229952305          11.5102853945     A'        A'  (1)
   31    23           0.4400007096          11.9730280051     A'        A'  (1)
   32    24           0.4898564125          13.3296706517     A'        A'  (1)
   33    91           0.6127957322          16.6750196144     A''       A'' (2)
   34    25           0.6184568873          16.8290674764     A'        A'  (1)
   35    26           0.6796500730          18.4942187148     A'        A'  (1)
   36    27           0.7046176566          19.1736212036     A'        A'  (1)
   37    92           0.7131623930          19.4061353020     A''       A'' (2)
   38    28           0.7199710995          19.5914096250     A'        A'  (1)
   39    93           0.7579918041          20.6260055949     A''       A'' (2)
   40    29           0.7873928455          21.4260486054     A'        A'  (1)
   41    30           0.8538701798          23.2349888376     A'        A'  (1)
   42    94           0.8581971155          23.3527307436     A''       A'' (2)
   43    95           0.8863581325          24.1190309720     A''       A'' (2)
   44    31           0.8921180987          24.2757676212     A'        A'  (1)
   45    32           0.9111829811          24.7945494458     A'        A'  (1)
   46    96           0.9254343163          25.1823479924     A''       A'' (2)
   47    33           0.9271090251          25.2279191358     A'        A'  (1)
   48    34           0.9659031516          26.2835609852     A'        A'  (1)
   49    35           0.9921962065          26.9990313829     A'        A'  (1)
   50    97           1.0124207294          27.5493686301     A''       A'' (2)
   51    36           1.0194920313          27.7417885369     A'        A'  (1)
   52    98           1.1340465841          30.8589763926     A''       A'' (2)
   53    37           1.1478559858          31.2347493189     A'        A'  (1)
   54    99           1.2218091057          33.2471160178     A''       A'' (2)
   55    38           1.2312331515          33.5035573412     A'        A'  (1)
   56    39           1.2843553222          34.9490850934     A'        A'  (1)
   57    40           1.3464300646          36.6382247091     A'        A'  (1)
   58   100           1.3842223572          37.6666052735     A''       A'' (2)
   59    41           1.4028797372          38.1742983939     A'        A'  (1)
   60   101           1.5092912755          41.0699035598     A''       A'' (2)
   61   102           1.5608041019          42.4716388288     A''       A'' (2)
   62    42           1.6013551935          43.5750901293     A'        A'  (1)
   63    43           1.6759112234          45.6038628449     A'        A'  (1)
   64    44           1.7376467256          47.2837712643     A'        A'  (1)
   65    45           1.9092244095          51.9526374025     A'        A'  (1)
   66    46           2.0945707319          56.9961672446     A'        A'  (1)
   67   103           2.1609698551          58.8029792418     A''       A'' (2)
   68    47           2.2310142454          60.7089840033     A'        A'  (1)
   69   104           2.2524952276          61.2935112450     A''       A'' (2)
   70    48           2.2751664069          61.9104253964     A'        A'  (1)
   71   105           2.2984435561          62.5438288270     A''       A'' (2)
   72    49           2.3312003970          63.4351877854     A'        A'  (1)
   73    50           2.3942958050          65.1521011233     A'        A'  (1)
   74    51           2.4122416343          65.6404319639     A'        A'  (1)
   75   106           2.4352386053          66.2662113588     A''       A'' (2)
   76   107           2.4584983296          66.8991406358     A''       A'' (2)
   77    52           2.4618328899          66.9898786332     A'        A'  (1)
   78   108           2.4969571670          67.9456588055     A''       A'' (2)
   79    53           2.5053631626          68.1743975747     A'        A'  (1)
   80    54           2.5503747255          69.3992244682     A'        A'  (1)
   81   109           2.7477428109          74.7698831116     A''       A'' (2)
   82    55           2.8470251071          77.4714917383     A'        A'  (1)
   83   110           2.9255583682          79.6084904165     A''       A'' (2)
   84    56           2.9586935877          80.5101455767     A'        A'  (1)
   85    57           2.9759651221          80.9801279213     A'        A'  (1)
   86   111           3.0564264702          83.1695925159     A''       A'' (2)
   87    58           3.0668191147          83.4523907483     A'        A'  (1)
   88   112           3.1288631705          85.1406953375     A''       A'' (2)
   89    59           3.1325230566          85.2402859023     A'        A'  (1)
   90    60           3.2817370352          89.3006046832     A'        A'  (1)
   91   113           3.3686713872          91.6662086659     A''       A'' (2)
   92    61           3.3936531580          92.3459972099     A'        A'  (1)
   93    62           3.6683822132          99.8217548625     A'        A'  (1)
   94    63           3.7621545829         102.3734307646     A'        A'  (1)
   95   114           4.1445732539         112.7795718423     A''       A'' (2)
   96   115           4.1796962931         113.7353183282     A''       A'' (2)
   97    64           4.2910318126         116.7649118356     A'        A'  (1)
   98   116           4.3718843511         118.9650212583     A''       A'' (2)
   99    65           4.5813688502         124.6653842796     A'        A'  (1)
  100    66           4.7280702942         128.6573335179     A'        A'  (1)
  101    67           4.8262332636         131.3284837141     A'        A'  (1)
  102    68           5.1998347174         141.4946961131     A'        A'  (1)
  103   117           5.3275710656         144.9705788574     A''       A'' (2)
  104    69           5.5724746398         151.6347439095     A'        A'  (1)
  105    70           6.1303093356         166.8141976921     A'        A'  (1)
  106    71           6.3092867646         171.6844211312     A'        A'  (1)
  107   118           6.6326221871         180.4828252795     A''       A'' (2)
  108    72           6.6758332066         181.6586568984     A'        A'  (1)
  109   119           6.7469890952         183.5949070646     A''       A'' (2)
  110    73           6.7805044038         184.5069049779     A'        A'  (1)
  111   120           7.1282309075         193.9690241887     A''       A'' (2)
  112    74           7.1724338279         195.1718468029     A'        A'  (1)
  113   121           7.2021524613         195.9805319307     A''       A'' (2)
  114    75           7.2517676988         197.3306311792     A'        A'  (1)
  115   122           7.2789176736         198.0694195536     A''       A'' (2)
  116    76           7.4452341702         202.5951215086     A'        A'  (1)
  117    77           7.6663090813         208.6108756750     A'        A'  (1)
  118    78           8.0579567156         219.2681496090     A'        A'  (1)
  119   123           8.7718490679         238.6941481149     A''       A'' (2)
  120    79           8.7725394352         238.7129339619     A'        A'  (1)
  121   124           8.8232222205         240.0920826651     A''       A'' (2)
  122    80           8.8846741366         241.7642743140     A'        A'  (1)
  123    81           9.2546415220         251.8315986859     A'        A'  (1)
  124    82          14.5484719486         395.8840480780     A'        A'  (1)


  VSCF finished.

 @CHECKOUT-I, Total execution time (CPU/WALL):       37.16/       4.78 seconds.
--executable xvscf finished with status     0 in        4.81 seconds (walltime).
 --invoking executable--
/home/asmola/.local/bin/xvtran
 @GETMEM-I,  Allocated    3814 MB of main memory.
  Full RHF integral transformation
  Transformation of IIII integrals :
  1 pass through the AO integral file was required.
     5908218 AO integrals were read.
     6200062 MO integrals were written to HF2.
  Transformation of IIJJ integrals :
  1 pass through the AO integral file was required.
     2920898 AO integrals were read.
     3072909 MO integrals were written to HF2.
  Transformation of IJIJ integrals :
  1 pass through the AO integral file was required.
     5650236 AO integrals were read.
     5932290 MO integrals were written to HF2.
  Summary of active molecular orbitals: 
------------------------------------------------------------------------
 
  Index      Eigenvalue    Symmetry    Index      Eigenvalue    Symmetry
------------------------------------------------------------------------
     1      -104.8948968        1        63         3.2817370        1
     2       -20.6363553        1        64         3.3936532        1
     3       -10.6133404        1        65         3.6683822        1
     4        -8.0806790        1        66         3.7621546        1
     5        -8.0774208        1        67         4.2910318        1
     6        -1.4084895        1        68         4.5813689        1
     7        -1.0658302        1        69         4.7280703        1
     8        -0.7231621        1        70         4.8262333        1
     9        -0.6012858        1        71         5.1998347        1
    10        -0.4655890        1        72         5.5724746        1
    11        -8.0772644        2        73         6.1303093        1
    12        -0.6112596        2        74         6.3092868        1
    13        -0.4426287        2        75         6.6758332        1
    14         0.0280755        1        76         6.7805044        1
    15         0.0617982        1        77         7.1724338        1
    16         0.1105512        1        78         7.2517677        1
    17         0.1396343        1        79         7.4452342        1
    18         0.1567408        1        80         7.6663091        1
    19         0.1729109        1        81         8.0579567        1
    20         0.1791806        1        82         8.7725394        1
    21         0.2481123        1        83         8.8846741        1
    22         0.3041830        1        84         9.2546415        1
    23         0.3219690        1        85        14.5484719        1
    24         0.3878465        1        86         0.1162601        2
    25         0.4229952        1        87         0.1873539        2
    26         0.4400007        1        88         0.2619508        2
    27         0.4898564        1        89         0.3725935        2
    28         0.6184569        1        90         0.4144656        2
    29         0.6796501        1        91         0.6127957        2
    30         0.7046177        1        92         0.7131624        2
    31         0.7199711        1        93         0.7579918        2
    32         0.7873928        1        94         0.8581971        2
    33         0.8538702        1        95         0.8863581        2
    34         0.8921181        1        96         0.9254343        2
    35         0.9111830        1        97         1.0124207        2
    36         0.9271090        1        98         1.1340466        2
    37         0.9659032        1        99         1.2218091        2
    38         0.9921962        1       100         1.3842224        2
    39         1.0194920        1       101         1.5092913        2
    40         1.1478560        1       102         1.5608041        2
    41         1.2312332        1       103         2.1609699        2
    42         1.2843553        1       104         2.2524952        2
    43         1.3464301        1       105         2.2984436        2
    44         1.4028797        1       106         2.4352386        2
    45         1.6013552        1       107         2.4584983        2
    46         1.6759112        1       108         2.4969572        2
    47         1.7376467        1       109         2.7477428        2
    48         1.9092244        1       110         2.9255584        2
    49         2.0945707        1       111         3.0564265        2
    50         2.2310142        1       112         3.1288632        2
    51         2.2751664        1       113         3.3686714        2
    52         2.3312004        1       114         4.1445733        2
    53         2.3942958        1       115         4.1796963        2
    54         2.4122416        1       116         4.3718844        2
    55         2.4618329        1       117         5.3275711        2
    56         2.5053632        1       118         6.6326222        2
    57         2.5503747        1       119         6.7469891        2
    58         2.8470251        1       120         7.1282309        2
    59         2.9586936        1       121         7.2021525        2
    60         2.9759651        1       122         7.2789177        2
    61         3.0668191        1       123         8.7718491        2
    62         3.1325231        1       124         8.8232222        2
------------------------------------------------------------------------
  -104.894896803248       -20.6363553181917       -10.6133403500707     
  -8.08067904326155       -8.07742075889736       -1.40848947560320     
  -1.06583018437053      -0.723162120420955      -0.601285769331401     
 -0.465588992005622       -8.07726440618330      -0.611259569015727     
 -0.442628730009155       2.807545073911854E-002  6.179819494094718E-002
  0.110551168371043       0.139634322975766       0.156740781577190     
  0.172910944733887       0.179180578068496       0.248112303533348     
  0.304183034044978       0.321969044257749       0.387846483511490     
  0.422995230537268       0.440000709597952       0.489856412508282     
  0.618456887289253       0.679650073019224       0.704617656579975     
  0.719971099483171       0.787392845504337       0.853870179844926     
  0.892118098677209       0.911182981083097       0.927109025107894     
  0.965903151591706       0.992196206494167        1.01949203129800     
   1.14785598584863        1.23123315153519        1.28435532216937     
   1.34643006460008        1.40287973723278        1.60135519347643     
   1.67591122342378        1.73764672560767        1.90922440946199     
   2.09457073191473        2.23101424543145        2.27516640687933     
   2.33120039701531        2.39429580501758        2.41224163428197     
   2.46183288987643        2.50536316263417        2.55037472546124     
   2.84702510708615        2.95869358765109        2.97596512205638     
   3.06681911469103        3.13252305659239        3.28173703521593     
   3.39365315803625        3.66838221324937        3.76215458287035     
   4.29103181264990        4.58136885020054        4.72807029421100     
   4.82623326361565        5.19983471744860        5.57247463976833     
   6.13030933561790        6.30928676456901        6.67583320656903     
   6.78050440382734        7.17243382793026        7.25176769877737     
   7.44523417022038        7.66630908133127        8.05795671560609     
   8.77253943516647        8.88467413655971        9.25464152204354     
   14.5484719486190       0.116260089748330       0.187353892238807     
  0.261950759916797       0.372593534439248       0.414465591521870     
  0.612795732187811       0.713162392984189       0.757991804080671     
  0.858197115535531       0.886358132457273       0.925434316299854     
   1.01242072940968        1.13404658407055        1.22180910573719     
   1.38422235723339        1.50929127549750        1.56080410189088     
   2.16096985505524        2.25249522760344        2.29844355605291     
   2.43523860528243        2.45849832963075        2.49695716703417     
   2.74774281088732        2.92555836821353        3.05642647024978     
   3.12886317045971        3.36867138720879        4.14457325393857     
   4.17969629314016        4.37188435110092        5.32757106562301     
   6.63262218706268        6.74698909518217        7.12823090753616     
   7.20215246133589        7.27891767360864        8.77184906794798     
   8.82322222048652     
 @CHECKOUT-I, Total execution time (CPU/WALL):       14.49/       7.11 seconds.
--executable xvtran finished with status     0 in        7.15 seconds (walltime).
 --invoking executable--
/home/asmola/.local/bin/xintprc
 @GETMEM-I,  Allocated    3814 MB of main memory.
  Processing integrals for CCSD calculation.
  @GMOIAA-I, Processing MO integrals for spin case AA.
  @GMOIAA-I, Generation of integral list completed.
                      TYPE                NUMBER
                      ----               --------
                      PPPP               9752772
                      PPPH               4554144
                      PPHH                534624
                      PHPH                292128
                      PHHH                 69237
                      HHHH                  2356

                     TOTAL              15205261

  @FORMT2-I, Second-order MP correlation energies:
            ------------------------------------------------
            E(SCF)                  =   -534.921842238303 a.u.
            E2(AA)                  =     -0.074394283291 a.u.
            E2(AB)                  =     -0.420388959951 a.u.
            E2(TOT)                 =     -0.569177526533 a.u.
            Total MP2 energy        =   -535.491019764836 a.u.
            ------------------------------------------------
   Largest T2 amplitudes for spin case AB:
       _       _                 _       _                 _       _
   i   j   a   b             i   j   a   b             i   j   a   b
-----------------------------------------------------------------------------
[  9   9  15  15]-0.01926 [  9   9  17  17]-0.01856 [  9   9  17  15] 0.01810
[  9   9  15  17] 0.01810 [ 13  13  90  90]-0.01701 [ 10  10  33  33]-0.01556
[ 13  13  94  94]-0.01511 [ 13  13  91  91]-0.01505 [ 13  13  95  95]-0.01281
[  9   9  18  17]-0.01274 [  9   9  17  18]-0.01274 [  9   9  18  15] 0.01274
[  9   9  15  18] 0.01274 [  8   8  25  25]-0.01273 [ 10  10  26  26]-0.01235
-----------------------------------------------------------------------------
   Norm of T2AB vector (  1067805 symmetry allowed elements):  0.3193673666.
-----------------------------------------------------------------------------
 @CHECKOUT-I, Total execution time (CPU/WALL):        3.89/       2.99 seconds.
--executable xintprc finished with status     0 in        3.05 seconds (walltime).
  calling xvcc 
 --invoking executable--
/home/asmola/.local/bin/xvcc
 @GETMEM-I,  Allocated    3814 MB of main memory.
   CCSD energy will be calculated.
   The total correlation energy is -0.569177526533 a.u.
   The total correlation energy is -0.570662190799 a.u.
  Convergence information after     1 iterations: 
  Largest element of residual vector : -0.12087131E-01.
  Largest element of DIIS residual   : -0.12087131E-01.
   The total correlation energy is -0.583253349035 a.u.
  Convergence information after     2 iterations: 
  Largest element of residual vector : -0.28134261E-02.
  Largest element of DIIS residual   : -0.26324008E-02.
   The total correlation energy is -0.583386138095 a.u.
  Convergence information after     3 iterations: 
  Largest element of residual vector : -0.19835892E-02.
  Largest element of DIIS residual   : -0.11519580E-02.
   The total correlation energy is -0.584677652995 a.u.
  Convergence information after     4 iterations: 
  Largest element of residual vector :  0.28147862E-03.
  Largest element of DIIS residual   : -0.26379858E-03.
   The total correlation energy is -0.584802712823 a.u.
  Convergence information after     5 iterations: 
  Largest element of residual vector : -0.27743486E-03.
  Largest element of DIIS residual   : -0.20828392E-03.
   The total correlation energy is -0.584806603873 a.u.
  Convergence information after     6 iterations: 
  Largest element of residual vector : -0.12319324E-03.
  Largest element of DIIS residual   : -0.91088336E-04.
   The total correlation energy is -0.584807720992 a.u.
  Convergence information after     7 iterations: 
  Largest element of residual vector : -0.90350811E-04.
  Largest element of DIIS residual   : -0.62331884E-04.
   The total correlation energy is -0.584806978290 a.u.
  Convergence information after     8 iterations: 
  Largest element of residual vector : -0.41362171E-04.
  Largest element of DIIS residual   : -0.25861522E-04.
   The total correlation energy is -0.584807024920 a.u.
  Convergence information after     9 iterations: 
  Largest element of residual vector : -0.22533057E-04.
  Largest element of DIIS residual   : -0.12811236E-04.
   The total correlation energy is -0.584807889170 a.u.
  Convergence information after    10 iterations: 
  Largest element of residual vector : -0.11095344E-04.
  Largest element of DIIS residual   : -0.56634281E-05.
   The total correlation energy is -0.584808222800 a.u.
  Convergence information after    11 iterations: 
  Largest element of residual vector : -0.30536316E-05.
  Largest element of DIIS residual   :  0.23262251E-05.
   The total correlation energy is -0.584808407583 a.u.
  Convergence information after    12 iterations: 
  Largest element of residual vector : -0.20636905E-05.
  Largest element of DIIS residual   : -0.10650574E-05.
   The total correlation energy is -0.584808470067 a.u.
  Convergence information after    13 iterations: 
  Largest element of residual vector : -0.53864400E-06.
  Largest element of DIIS residual   : -0.47202230E-06.
   The total correlation energy is -0.584808476660 a.u.
  Convergence information after    14 iterations: 
  Largest element of residual vector : -0.40685712E-06.
  Largest element of DIIS residual   : -0.23895317E-06.
   The total correlation energy is -0.584808478658 a.u.
  Convergence information after    15 iterations: 
  Largest element of residual vector : -0.17846628E-06.
  Largest element of DIIS residual   :  0.12983477E-06.
   The total correlation energy is -0.584808478271 a.u.
  Convergence information after    16 iterations: 
  Largest element of residual vector : -0.11432413E-06.
  Largest element of DIIS residual   : -0.50884442E-07.
   The total correlation energy is -0.584808479920 a.u.
  Convergence information after    17 iterations: 
  Largest element of residual vector : -0.56345747E-07.
  Largest element of DIIS residual   : -0.30507811E-07.
   The total correlation energy is -0.584808480568 a.u.
  Convergence information after    18 iterations: 
  Largest element of residual vector : -0.18722676E-07.
  Largest element of DIIS residual   : -0.14142210E-07.
   The total correlation energy is -0.584808480730 a.u.
  Convergence information after    19 iterations: 
  Largest element of residual vector : -0.12992879E-07.
  Largest element of DIIS residual   : -0.72727531E-08.
   The total correlation energy is -0.584808480937 a.u.
  Convergence information after    20 iterations: 
  Largest element of residual vector : -0.41468016E-08.
  Largest element of DIIS residual   : -0.30383813E-08.
   The total correlation energy is -0.584808480939 a.u.
  Convergence information after    21 iterations: 
  Largest element of residual vector : -0.24778542E-08.
  Largest element of DIIS residual   : -0.15842226E-08.
   The total correlation energy is -0.584808480951 a.u.
  Convergence information after    22 iterations: 
  Largest element of residual vector : -0.11622695E-08.
  Largest element of DIIS residual   : -0.89331782E-09.
   The total correlation energy is -0.584808480954 a.u.
  Convergence information after    23 iterations: 
  Largest element of residual vector : -0.70817102E-09.
  Largest element of DIIS residual   :  0.38273298E-09.
   The total correlation energy is -0.584808480954 a.u.
  Convergence information after    24 iterations: 
  Largest element of residual vector : -0.34238367E-09.
  Largest element of DIIS residual   : -0.25556361E-09.
   The total correlation energy is -0.584808480959 a.u.
  Convergence information after    25 iterations: 
  Largest element of residual vector : -0.16280139E-09.
  Largest element of DIIS residual   : -0.12971065E-09.
   The total correlation energy is -0.584808480960 a.u.
  Convergence information after    26 iterations: 
  Largest element of residual vector : -0.10485432E-09.
  Largest element of DIIS residual   : -0.76258021E-10.
   The total correlation energy is -0.584808480961 a.u.
  Convergence information after    27 iterations: 
  Largest element of residual vector : -0.50605749E-10.
  Largest element of DIIS residual   : -0.30687243E-10.
  Amplitude equations converged in    27iterations.
   The total correlation energy is -0.584808480961 a.u.
   The CC iterations have converged.

   Largest T1 amplitudes for spin case AA:
   i       a                 i       a                 i       a    
-----------------------------------------------------------------------------
[ 12      90    ]-0.01461 [ 12      87    ]-0.01340 [  9      38    ] 0.00830
[  9      17    ] 0.00770 [ 13      87    ]-0.00755 [  9      39    ]-0.00723
[  9      15    ]-0.00691 [  8      39    ] 0.00601 [ 12      88    ]-0.00591
[ 12      94    ]-0.00589 [  9      27    ]-0.00585 [  9      23    ]-0.00569
[  7      27    ]-0.00565 [  9      47    ] 0.00525 [ 12      86    ]-0.00501
-----------------------------------------------------------------------------
   Norm of T1AA vector (      837 symmetry allowed elements):  0.0436997339.
-----------------------------------------------------------------------------
   Largest T2 amplitudes for spin case AB:
       _       _                 _       _                 _       _
   i   j   a   b             i   j   a   b             i   j   a   b
-----------------------------------------------------------------------------
[  9   9  15  15]-0.02357 [  9   9  17  17]-0.02245 [  9   9  17  15] 0.02223
[  9   9  15  17] 0.02223 [ 13  13  90  90]-0.01841 [ 10  10  33  33]-0.01794
[ 13  13  94  94]-0.01680 [  9   9  18  15] 0.01600 [  9   9  15  18] 0.01600
[  9   9  18  17]-0.01584 [  9   9  17  18]-0.01584 [ 13  13  91  91]-0.01582
[  8   8  25  25]-0.01452 [ 13  13  95  95]-0.01431 [ 10  10  26  26]-0.01367
-----------------------------------------------------------------------------
   Norm of T2AB vector (  1067805 symmetry allowed elements):  0.3530694806.
-----------------------------------------------------------------------------
       Summary of iterative solution of CC equations 
      -----------------------------------------------------------
                       Correlation           Total
       Iteration         Energy              Energy
      -----------------------------------------------------------
            0        -0.569177526533    -535.491019764836  DIIS 
            1        -0.570662190799    -535.492504429102  DIIS 
            2        -0.583253349035    -535.505095587339  DIIS 
            3        -0.583386138095    -535.505228376398  DIIS 
            4        -0.584677652995    -535.506519891298  DIIS 
            5        -0.584802712823    -535.506644951127  DIIS 
            6        -0.584806603873    -535.506648842177  DIIS 
            7        -0.584807720992    -535.506649959295  DIIS 
            8        -0.584806978290    -535.506649216593  DIIS 
            9        -0.584807024920    -535.506649263223  DIIS 
           10        -0.584807889170    -535.506650127474  DIIS 
           11        -0.584808222800    -535.506650461103  DIIS 
           12        -0.584808407583    -535.506650645886  DIIS 
           13        -0.584808470067    -535.506650708370  DIIS 
           14        -0.584808476660    -535.506650714963  DIIS 
           15        -0.584808478658    -535.506650716961  DIIS 
           16        -0.584808478271    -535.506650716574  DIIS 
           17        -0.584808479920    -535.506650718223  DIIS 
           18        -0.584808480568    -535.506650718871  DIIS 
           19        -0.584808480730    -535.506650719033  DIIS 
           20        -0.584808480937    -535.506650719241  DIIS 
           21        -0.584808480939    -535.506650719242  DIIS 
           22        -0.584808480951    -535.506650719255  DIIS 
           23        -0.584808480954    -535.506650719257  DIIS 
           24        -0.584808480954    -535.506650719257  DIIS 
           25        -0.584808480959    -535.506650719263  DIIS 
           26        -0.584808480960    -535.506650719263  DIIS 
           27        -0.584808480961    -535.506650719264  DIIS 
      -----------------------------------------------------------
      A miracle has come to pass. The CC iterations have converged.
      The reference energy is      -534.92184223830327 a.u.
      The correlation energy is      -0.58480848096078 a.u.
      The total energy is          -535.50665071926403 a.u.
 @CHECKOUT-I, Total execution time (CPU/WALL):      184.99/      23.32 seconds.
--executable xvcc finished with status     0 in       23.39 seconds (walltime).
 --invoking executable--
/home/asmola/.local/bin/xlambda
 @GETMEM-I,  Allocated    3814 MB of main memory.
 The Lambda equations are solved for CCSD.
  Initial lambda amplitudes: 
  Convergence information after     1 iterations: 
  Largest element of residual vector :  0.30742168E-02.
  Largest element of DIIS residual   :  0.30742168E-02.
  Convergence information after     2 iterations: 
  Largest element of residual vector : -0.37651888E-03.
  Largest element of DIIS residual   : -0.41409456E-03.
  Convergence information after     3 iterations: 
  Largest element of residual vector :  0.43280999E-03.
  Largest element of DIIS residual   :  0.33803995E-03.
  Convergence information after     4 iterations: 
  Largest element of residual vector :  0.13916551E-03.
  Largest element of DIIS residual   :  0.65812055E-04.
  Convergence information after     5 iterations: 
  Largest element of residual vector :  0.70128442E-04.
  Largest element of DIIS residual   :  0.58618027E-04.
  Convergence information after     6 iterations: 
  Largest element of residual vector :  0.40416704E-04.
  Largest element of DIIS residual   :  0.22566204E-04.
  Convergence information after     7 iterations: 
  Largest element of residual vector :  0.22874351E-04.
  Largest element of DIIS residual   :  0.15101077E-04.
  Convergence information after     8 iterations: 
  Largest element of residual vector :  0.10243333E-04.
  Largest element of DIIS residual   : -0.49787908E-05.
  Convergence information after     9 iterations: 
  Largest element of residual vector :  0.50463833E-05.
  Largest element of DIIS residual   :  0.26644723E-05.
  Convergence information after    10 iterations: 
  Largest element of residual vector :  0.18814262E-05.
  Largest element of DIIS residual   : -0.12052072E-05.
  Convergence information after    11 iterations: 
  Largest element of residual vector : -0.71670504E-06.
  Largest element of DIIS residual   : -0.41938891E-06.
  Convergence information after    12 iterations: 
  Largest element of residual vector : -0.35475603E-06.
  Largest element of DIIS residual   : -0.19814222E-06.
  Convergence information after    13 iterations: 
  Largest element of residual vector : -0.16451905E-06.
  Largest element of DIIS residual   : -0.10660591E-06.
  Convergence information after    14 iterations: 
  Largest element of residual vector : -0.81960569E-07.
  Largest element of DIIS residual   : -0.60663984E-07.
  Amplitude equations converged in    14 iterations.
 
  Full Fbar is constructed for CCSD second derivatives
 
      The lambda equations have converged.
 @CHECKOUT-I, Total execution time (CPU/WALL):       97.50/      12.26 seconds.
--executable xlambda finished with status     0 in       12.32 seconds (walltime).
 --invoking executable--
/home/asmola/.local/bin/xdens
 @GETMEM-I,  Allocated    3814 MB of main memory.
  CCSD density and intermediates are calculated.
  Unrelaxed density for DBOC is calculated
  sort for dboc
  ----------------------------------------------------------------------
                 Natural orbital occupation numbers
  ----------------------------------------------------------------------
  1.99999  1.99951  1.99925  1.99787  1.99786  1.99767  1.98065  1.97081
  1.96576  1.96253  1.94912  1.94876  1.93377  0.06224  0.02522  0.02321
  0.01995  0.01992  0.01898  0.01384  0.01243  0.01081  0.00940  0.00935
  0.00661  0.00618  0.00609  0.00596  0.00512  0.00485  0.00299  0.00168
  0.00164  0.00157  0.00157  0.00149  0.00144  0.00143  0.00117  0.00116
  0.00114  0.00104  0.00101  0.00099  0.00096  0.00088  0.00084  0.00083
  0.00076  0.00072  0.00067  0.00064  0.00063  0.00059  0.00058  0.00055
  0.00052  0.00051  0.00050  0.00048  0.00048  0.00045  0.00044  0.00043
  0.00030  0.00025  0.00021  0.00020  0.00016  0.00014  0.00014  0.00012
  0.00011  0.00011  0.00010  0.00010  0.00010  0.00010  0.00008  0.00008
  0.00008  0.00007  0.00007  0.00007  0.00006  0.00006  0.00006  0.00006
  0.00005  0.00005  0.00005  0.00005  0.00005  0.00004  0.00004  0.00004
  0.00004  0.00003  0.00003  0.00002  0.00002  0.00002  0.00002  0.00001
  0.00001  0.00001  0.00001  0.00001  0.00001  0.00001  0.00001  0.00001
  0.00000  0.00000  0.00000  0.00000  0.00000  0.00000  0.00000  0.00000
  0.00000  0.00000  0.00000  0.00000
  Trace of density matrix :  26.0000000000.
  ----------------------------------------------------------------------
  Density calculation successfully completed.
 @CHECKOUT-I, Total execution time (CPU/WALL):        8.57/       1.40 seconds.
--executable xdens finished with status     0 in        1.46 seconds (walltime).
 --invoking executable--
/home/asmola/.local/bin/xvdint
 @GETMEM-I,  Allocated    3814 MB of main memory.
 One- and two-electron integral derivatives are calculated
 for RHF-CC/MBPT hessians and dipole derivatives.
 Spherical gaussians are used.
  magnet F F
  Integrals for DBOC will be evaluated
 
   First contribution to E(DBOC):       28.68010 cm-1
   Second contribution to E(DBOC):    -2230.61519 cm-1
 Evaluation of 1e integral derivatives required    1.31 seconds.
 Evaluation of 2el integral derivatives
 Evaluation of 2e integral derivatives required  120.52 seconds.
 @CHECKOUT-I, Total execution time (CPU/WALL):      121.83/      15.34 seconds.
--executable xvdint finished with status     0 in       15.89 seconds (walltime).
 --invoking executable--
/home/asmola/.local/bin/xcphf
 @GETMEM-I,  Allocated    3814 MB of main memory.
 Coupled-perturbed HF (CPHF) equations 
 are solved for RHF-CC/MBPT hessian and dipole derivatives.
  irreducible representation Nr.                      1
  # geometric perturbations                          6
  irreducible representation Nr.                      2
  # geometric perturbations                          3
 There are 8 perturbations within irrep 1.
 CPHF converged after  27 iterations.
 There are 4 perturbations within irrep 2.
[...]
 term  0.427821590636989     
 final tnorm  0.848842441576692     
  norm contr. I: |<0|L dT/dx|0>|^2   0.000000000000000E+000
  norm contr. II: <0|[nabla(1+L)e-T][nabla e^T]|0>  0.427821590636989     
  total norm contribution  0.427821590636989     
 oo  2.302646504473640E-003
 vv  -1.43517877804149     
 vo -2.483801391946622E-002
  Correlated perturbed 1-el contribution to DBOC  -1.45771414545648       cm**-1
  SUM_I |dc_I/dx|^2 contribution to DBOC  0.736701210932779       cm**-1
 
 
  The total diagonal Born-Oppenheimer correction (DBOC) is:      0.0086063986 a.u.
  The total diagonal Born-Oppenheimer correction (DBOC) is:       1888.886165 cm-1
 
 Total CC energy including DBOC  -535.498044320640     
 First-order density matrix is being calculated  (Symmetry block 2, perturbation   3)
 Calculation of the contributions of <pq||rs> to dI(i,j)/dx required   1.3 seconds.
 Calculation of the contributions of <pq||rs> to dI(a,b)/dx required   5.4 seconds.
 Calculation of the contributions of <pq||rs> to dI(i,a)/dx required   3.0 seconds.
 First-order Z-vector equations are solved for 1 perturbation.
 Convergence reached after  21 iterations.
        U*G(pq,rs) contribution is being calculated
             (Symmetry block 2, perturbation   3)

 CCSD contribution to force constants 

        0.0000000000        0.0000000000        0.0000000000
        0.0000000000        0.0000000000        0.0000000000
        0.0000000000        0.0000000000        0.0000000000
        0.0000000000        0.0000000000        0.0000000000
        0.0000000000        0.0000000000        0.0000000000
        0.0000000000        0.0000000000        0.0000000000
        0.0000000000        0.0000000000        0.0000000000
        0.0000000000        0.0000000000        0.0000000000
        0.0000000000        0.0000000000        0.0000000000
        0.0000000000        0.0000000000        0.0000000000
        0.0000000000        0.0000000000        0.0000000000
        0.0000000000        0.0000000000        0.0000000000
        0.0000000000        0.0000000000        0.0000000000
        0.0000000000        0.0000000000        0.0000000000
        0.0000000000        0.0000000000        0.0000000000
        0.0000000000        0.0000000000        0.0000000000
        0.0000000000        0.0000000000        0.0000000000
        0.0000000000        0.0000000000        0.0000000000
        0.0000000000        0.0000000000        0.0000000000
        0.0000000000        0.0000000000        0.0000000000
        0.0000000000        0.0000000000        0.0000000000
        0.0000000000        0.0000000000        0.0000000000
        0.0000000000        0.0000000000        0.0000000000
        0.0000000000        0.0000000000        0.0000000000
        0.0000000000        0.0000000000        0.0000000000
        0.0000000000        0.0000000000        0.0000000000
        0.2503505215       -0.0639663278       -0.1863841937

 CCSD contribution to dipole derivatives 

        0.0000000000        0.0000000000        0.0000000000
        0.0000000000        0.0000000000        0.0000000000
        0.0000000000        0.0000000000        0.0000000000
        0.0000000000        0.0000000000        0.0000000000
        0.0000000000        0.0000000000        0.0000000000
        0.0000000000        0.0000000000        0.0000000000
        0.0000000000        0.0000000000        0.0000000000
        0.0000000000        0.0000000000        0.0000000000
        0.0000000000        0.0000000000        0.0177829203
 @CHECKOUT-I, Total execution time (CPU/WALL):      418.64/      71.09 seconds.
--executable xsdcc finished with status     0 in       71.17 seconds (walltime).
 --invoking executable--
/home/asmola/.local/bin/xanti
 @GETMEM-I,  Allocated    3814 MB of main memory.
 CCSD MO derivative gammas will be sorted to Mulliken order.
 @CHECKOUT-I, Total execution time (CPU/WALL):        3.00/       4.61 seconds.
--executable xanti finished with status     0 in        4.69 seconds (walltime).
 --invoking executable--
/home/asmola/.local/bin/xbcktrn
 @GETMEM-I,  Allocated    3814 MB of main memory.
 CCSD MO derivative gammas will be transformed to the AO basis.
 @CHECKOUT-I, Total execution time (CPU/WALL):        4.89/       0.63 seconds.
--executable xbcktrn finished with status     0 in        0.67 seconds (walltime).
 --invoking executable--
/home/asmola/.local/bin/xvdint
 @GETMEM-I,  Allocated    3814 MB of main memory.
 One- and two-electron integral derivatives are calculated
 for RHF-CC/MBPT hessians and dipole derivatives.
 Spherical gaussians are used.
  magnet F F
 Evaluation of 2el integral derivatives

                      Two-electron integral gradient
                      ------------------------------

                         O #1 x     0.0000000000
                         O #1 y     0.0000000000
                         H #2 x     0.0000000000
                         H #2 y     0.0000000000
                         CL#3 x     0.0000000000
                         CL#3 y     0.0000000000


 O #1       0.0000000000            0.0000000000           -0.0943412511
 H #2       0.0000000000            0.0000000000           -0.0005339377
 CL#3       0.0000000000            0.0000000000            0.0948751888


 Evaluation of 2e integral derivatives required   51.48 seconds.
  contribution to Hessian
        0.0000000000        0.0000000000        0.0000000000
        0.0000000000        0.0000000000        0.0000000000
       -0.0943412511       -0.0005339377        0.0948751888
 @CHECKOUT-I, Total execution time (CPU/WALL):       51.48/       8.27 seconds.
--executable xvdint finished with status     0 in        8.33 seconds (walltime).
 --invoking executable--
/home/asmola/.local/bin/xanti
 @GETMEM-I,  Allocated    3814 MB of main memory.
 CCSD MO gammas will be sorted to Mulliken order.
 @CHECKOUT-I, Total execution time (CPU/WALL):        3.49/       2.03 seconds.
--executable xanti finished with status     0 in        2.08 seconds (walltime).
 --invoking executable--
/home/asmola/.local/bin/xbcktrn
 @GETMEM-I,  Allocated    3814 MB of main memory.
 CCSD MO gammas will be transformed to the AO basis.
 @CHECKOUT-I, Total execution time (CPU/WALL):        8.56/       1.16 seconds.
--executable xbcktrn finished with status     0 in        1.19 seconds (walltime).
 --invoking executable--
/home/asmola/.local/bin/xvdint
 @GETMEM-I,  Allocated    3814 MB of main memory.
 One- and two-electron integral derivatives are calculated
 for RHF-CC/MBPT hessians and dipole derivatives.
 Spherical gaussians are used.
  magnet F F

                     Kinetic energy integral gradient
                     --------------------------------

                         O #1 x    -0.0401658107
                         O #1 y    -0.5274122233
                         H #2 x     0.3986595362
                         H #2 y     0.5632966123
                         CL#3 x    -0.3584937256
                         CL#3 y    -0.0358843890


 O #1      -0.0401658107           -0.5274122233            0.0000000000
 H #2       0.3986595362            0.5632966123            0.0000000000
 CL#3      -0.3584937256           -0.0358843890            0.0000000000



                   Nuclear attraction integral gradient
                   ------------------------------------

                         O #1 x   -22.9939463001
                         O #1 y     5.6759646832
                         H #2 x    -5.5787616562
                         H #2 y    -6.0169846541
                         CL#3 x    28.5727079563
                         CL#3 y     0.3410199709


 O #1     -22.9939463001            5.6759646832            0.0000000000
 H #2      -5.5787616562           -6.0169846541            0.0000000000
 CL#3      28.5727079563            0.3410199709            0.0000000000



                      Reorthonormalization gradient
                      -----------------------------

                         O #1 x     0.0000000000
                         O #1 y     0.0000000000
                         H #2 x     0.0000000000
                         H #2 y     0.0000000000
                         CL#3 x     0.0000000000
                         CL#3 y     0.0000000000


 O #1       0.0000000000            0.0000000000            0.0000000000
 H #2       0.0000000000            0.0000000000            0.0000000000
 CL#3       0.0000000000            0.0000000000            0.0000000000



                     Kinetic energy integral Hessian
                     -------------------------------


           Symmetry 1

           O #1 x      O #1 y      H #2 x      H #2 y      CL#3 x      CL#3 y

 O #1 x    0.090073
 O #1 y    0.574400    0.046640
 H #2 x    0.306709   -0.555569   -0.307553
 H #2 y   -0.555569   -0.260126    0.567848    0.261861
 CL#3 x   -0.396782   -0.018831    0.000844   -0.012278    0.395938
 CL#3 y   -0.018831    0.213486   -0.012278   -0.001735    0.031109   -0.211751


           Symmetry 2

           O #1 z      H #2 z      CL#3 z

 O #1 z   -0.895469
 H #2 z    0.692947   -0.699290
 CL#3 z    0.202522    0.006343   -0.208865




           O #1 x      O #1 y      O #1 z      H #2 x      H #2 y      H #2 z

 O #1 x    0.090073
 O #1 y    0.574400    0.046640
 O #1 z    0.000000    0.000000   -0.895469

 H #2 x    0.306709   -0.555569    0.000000   -0.307553
 H #2 y   -0.555569   -0.260126    0.000000    0.567848    0.261861
 H #2 z    0.000000    0.000000    0.692947    0.000000    0.000000   -0.699290

 CL#3 x   -0.396782   -0.018831    0.000000    0.000844   -0.012278    0.000000
 CL#3 y   -0.018831    0.213486    0.000000   -0.012278   -0.001735    0.000000
 CL#3 z    0.000000    0.000000    0.202522    0.000000    0.000000    0.006343


           CL#3 x      CL#3 y      CL#3 z

 CL#3 x    0.395938
 CL#3 y    0.031109   -0.211751
 CL#3 z    0.000000    0.000000   -0.208865




                   Nuclear attraction integral Hessian
                   -----------------------------------


           Symmetry 1

           O #1 x      O #1 y      H #2 x      H #2 y      CL#3 x      CL#3 y

 O #1 x  -10.656802
 O #1 y   -3.332268   10.429048
 H #2 x   -4.082069    4.065103    3.567887
 H #2 y    4.121039   -0.086862   -4.841396    0.060276
 CL#3 x   14.738871   -0.732835    0.514182    0.720358  -15.253052
 CL#3 y   -0.788770  -10.342186    0.776293    0.026585    0.012477   10.315601


           Symmetry 2

           O #1 z      H #2 z      CL#3 z

 O #1 z   16.733724
 H #2 z   -6.963938    7.427196
 CL#3 z   -9.769786   -0.463258   10.233044




           O #1 x      O #1 y      O #1 z      H #2 x      H #2 y      H #2 z

 O #1 x  -10.656802
 O #1 y   -3.332268   10.429048
 O #1 z    0.000000    0.000000   16.733724

 H #2 x   -4.082069    4.065103    0.000000    3.567887
 H #2 y    4.121039   -0.086862    0.000000   -4.841396    0.060276
 H #2 z    0.000000    0.000000   -6.963938    0.000000    0.000000    7.427196

 CL#3 x   14.738871   -0.732835    0.000000    0.514182    0.720358    0.000000
 CL#3 y   -0.788770  -10.342186    0.000000    0.776293    0.026585    0.000000
 CL#3 z    0.000000    0.000000   -9.769786    0.000000    0.000000   -0.463258


           CL#3 x      CL#3 y      CL#3 z

 CL#3 x  -15.253052
 CL#3 y    0.012477   10.315601
 CL#3 z    0.000000    0.000000   10.233044




                Highest order reorthonormalization Hessian
                ------------------------------------------


           Symmetry 1

           O #1 x      O #1 y      H #2 x      H #2 y      CL#3 x      CL#3 y

 O #1 x    0.000000
 O #1 y    0.000000    0.000000
 H #2 x    0.000000    0.000000    0.000000
 H #2 y    0.000000    0.000000    0.000000    0.000000
 CL#3 x    0.000000    0.000000    0.000000    0.000000    0.000000
 CL#3 y    0.000000    0.000000    0.000000    0.000000    0.000000    0.000000


           Symmetry 2

           O #1 z      H #2 z      CL#3 z

 O #1 z    0.000000
 H #2 z    0.000000    0.000000
 CL#3 z    0.000000    0.000000    0.000000




           O #1 x      O #1 y      O #1 z      H #2 x      H #2 y      H #2 z


           CL#3 x      CL#3 y      CL#3 z




                Electronic contributions to dipole moment
                -----------------------------------------

                               au             Debye

                    x      1.77256922      4.50542235
                    y      0.18356082      0.46656515

  Conversion factor used: 1 a.u. =   2.54174691 Debye 



   Electronic contributions to static part of dipole moment derivatives
   --------------------------------------------------------------------


                     Total dipole moment derivatives
                     -------------------------------


           Symmetry 1
                              Ex             Ey

               O #1 x    -8.92046634    -0.07700961
               O #1 y    -0.19484933    -8.72442127
               H #2 x    -0.21678304     0.18104286
               H #2 y     0.31097171    -0.39689435
               CL#3 x   -16.86275062    -0.10403325
               CL#3 y    -0.11612239   -16.87868439

           Symmetry 2
                              Ez

               O #1 z    -8.37825827
               H #2 z    -0.73269218
               CL#3 z   -16.88904956



                       Ex          Ey          Ez

      O #1    x   -8.920466   -0.077010    0.000000
      O #1    y   -0.194849   -8.724421    0.000000
      O #1    z    0.000000    0.000000   -8.378258

      H #2    x   -0.216783    0.181043    0.000000
      H #2    y    0.310972   -0.396894    0.000000
      H #2    z    0.000000    0.000000   -0.732692

      CL#3    x  -16.862751   -0.104033    0.000000
      CL#3    y   -0.116122  -16.878684    0.000000
      CL#3    z    0.000000    0.000000  -16.889050

 Evaluation of 1e integral derivatives required    1.11 seconds.
 Evaluation of 2el integral derivatives

                      Two-electron integral gradient
                      ------------------------------

                         O #1 x    10.6050623361
                         O #1 y    -2.2207127005
                         H #2 x     3.0328673105
                         H #2 y     2.7055233038
                         CL#3 x   -13.6379296466
                         CL#3 y    -0.4848106033


 O #1      10.6050623361           -2.2207127005            0.0000000000
 H #2       3.0328673105            2.7055233038            0.0000000000
 CL#3     -13.6379296466           -0.4848106033            0.0000000000


 Evaluation of 2e integral derivatives required  131.83 seconds.

                            Molecular gradient
                            ------------------

                         O #1 x    -0.0735483237
                         O #1 y     0.1999130474
                         H #2 x    -0.1893188220
                         H #2 y    -0.2395588998
                         CL#3 x     0.2628671457
                         CL#3 y     0.0396458524


 O #1      -0.0735483237            0.1999130474            0.0000000000
 H #2      -0.1893188220           -0.2395588998            0.0000000000
 CL#3       0.2628671457            0.0396458524            0.0000000000


  Molecular gradient norm 0.457E+00

                            Molecular hessian
                            -----------------


           Symmetry 1

           O #1 x      O #1 y      H #2 x      H #2 y      CL#3 x      CL#3 y

 O #1 x    3.546124
 O #1 y    3.569464    7.082423
 H #2 x   -2.454530   -5.214695    2.883478
 H #2 y   -3.649196   -7.069088    3.931032    6.683367
 CL#3 x   -1.091593    0.394976   -0.641332   -0.227201    1.732925
 CL#3 y    0.079732   -0.013335   -0.140277    0.003889    0.060545    0.009446


           Symmetry 2

           O #1 z      H #2 z      CL#3 z

 O #1 z   -3.115364
 H #2 z    3.085817   -3.170653
 CL#3 z    0.029547   -0.076400    0.046853




           O #1 x      O #1 y      O #1 z      H #2 x      H #2 y      H #2 z

 O #1 x    3.546124
 O #1 y    3.569464    7.082423
 O #1 z    0.000000    0.000000   -3.115364

 H #2 x   -2.454530   -5.214695    0.000000    2.883478
 H #2 y   -3.649196   -7.069088    0.000000    3.931032    6.683367
 H #2 z    0.000000    0.000000    3.085817    0.000000    0.000000   -3.170653

 CL#3 x   -1.091593    0.394976    0.000000   -0.641332   -0.227201    0.000000
 CL#3 y    0.079732   -0.013335    0.000000   -0.140277    0.003889    0.000000
 CL#3 z    0.000000    0.000000    0.029547    0.000000    0.000000   -0.076400


           CL#3 x      CL#3 y      CL#3 z

 CL#3 x    1.732925
 CL#3 y    0.060545    0.009446
 CL#3 z    0.000000    0.000000    0.046853




                           Total dipole moment
                           -------------------

                               au             Debye

                    x     -0.19631469     -0.49898226
                    y     -0.55829392     -1.41904184

  Conversion factor used: 1 a.u. =   2.54174691 Debye 



                     Total dipole moment derivatives
                     -------------------------------


           Symmetry 1
                              Ex             Ey

               O #1 x    -0.50540055    -0.03703435
               O #1 y    -0.18966221    -0.18927862
               H #2 x     0.25622563    -0.00349774
               H #2 y     0.12366805     0.20039163
               CL#3 x     0.24917527     0.04053195
               CL#3 y     0.06599421    -0.01111305

           Symmetry 2
                              Ez

               O #1 z    -0.36223063
               H #2 z     0.33837550
               CL#3 z     0.02385524



                       Ex          Ey          Ez

      O #1    x   -0.505401   -0.037034    0.000000
      O #1    y   -0.189662   -0.189279    0.000000
      O #1    z    0.000000    0.000000   -0.362231

      H #2    x    0.256226   -0.003498    0.000000
      H #2    y    0.123668    0.200392    0.000000
      H #2    z    0.000000    0.000000    0.338376

      CL#3    x    0.249175    0.040532    0.000000
      CL#3    y    0.065994   -0.011113    0.000000
      CL#3    z    0.000000    0.000000    0.023855

  Molecular gradient does not satisfy rotational invariance condition.
   rotational invariance in yz-plane :        0.0000E+00
   rotational invariance in xz-plane :        0.0000E+00
   rotational invariance in xy-plane :        -.4521E-01
 @CHECKOUT-I, Total execution time (CPU/WALL):      132.94/      18.35 seconds.
--executable xvdint finished with status     0 in       18.40 seconds (walltime).
 --invoking executable--
/home/asmola/.local/bin/xjoda
  @GTFLGS-I, Hessian will be transformed to curvilinear coordinates.
  @GTFLGS-I, Hessian will be transformed to curvilinear coordinates.
  igrd and ihes are                      0                     1
  gradient from JOBARC 
  -0.073548323694550   0.199913047357507   0.000000000000000
  -0.189318822013846  -0.239558899752592   0.000000000000000
   0.262867145708403   0.039645852395093   0.000000000000000
 
  @PROJFCM-I, Projecting force constant matrix onto totally symmetric subspace.
  Largest difference between matrix elements of symmetrized
  and unsymmetrized FCM :     0.0000000000E+00.
 
  Summary of diagonal Born-Oppenheimer correction at the correlated level
  The total diagonal Born-Oppenheimer correction (DBOC) is:      0.0086063986 a.u.
  The total diagonal Born-Oppenheimer correction (DBOC) is:       1888.886165 cm-1
  The total diagonal Born-Oppenheimer correction (DBOC) is:            22.596 kJ/mole
  hellooooooo 
  readis is  F
 
 @CHECKOUT-I, Total execution time (CPU/WALL):        0.07/       0.09 seconds.
--executable xjoda finished with status     0 in        0.13 seconds (walltime).
  The final electronic energy is      -535.498044320639792 a.u. 
  This computation required                          785.70 seconds (walltime).
