 --invoking executable--
/home/asmola/.local/bin/xjoda


   *************************************************************************
         <<<     CCCCCC     CCCCCC   |||     CCCCCC     CCCCCC   >>>
       <<<      CCC        CCC       |||    CCC        CCC         >>>
      <<<      CCC        CCC        |||   CCC        CCC            >>>
    <<<        CCC        CCC        |||   CCC        CCC              >>>
      <<<      CCC        CCC        |||   CCC        CCC            >>>
       <<<      CCC        CCC       |||    CCC        CCC         >>>
         <<<     CCCCCC     CCCCCC   |||     CCCCCC     CCCCCC   >>>
   *************************************************************************

     ****************************************************************
     * CFOUR Coupled-Cluster techniques for Computational Chemistry *
     ****************************************************************
 

   Department of Chemistry                Institut fuer Physikalische Chemie
   University of Florida                  Universitaet Mainz
   Gainesville, FL 32611, USA             D-55099 Mainz, Germany

   Department of Chemistry                Fakultaet fuer Chemie und Biowiss.
   Johns Hopkins University               Karlsruher Institut fuer Technologie
   Baltimore, MD 21218, USA               D-76131 Karlsruhe, Germany

   Department of Chemistry                Department of Physical Chemistry
   Southern Methodist University          Eotvos Lorand University
   Dallas, TX 75275, USA                  H-1053 Budapest, Hungary

 
                       Version 2.1
 
                     vincent.theory.phys.ucl.ac.uk                     
                     Tue 28 Jan 12:33:44 GMT 2025                      
                     integer*8 version is running
 
********************************************************************************
*                          Input from ZMAT file                                *
********************************************************************************
Hypochlorous acid DBOC calculation                                              
O                                                                               
H 1 ROH                                                                         
CL 1 ROCL 2 A                                                                   
                                                                                
ROH=0.96000000                                                                  
ROCL=1.68300000                                                                 
A=115.00000                                                                     
                                                                                
                                                                                
*CFOUR(CALC=CCSD,BASIS=AUG-PVTZ,SCF_CONV=10                                     
CC_CONV=10,DBOC=ON,MEMORY=500000000)                                            
********************************************************************************
  @GTFLGS-I, Hessian will be transformed to curvilinear coordinates.
    -------------------------------------------------------------------
                    CFOUR Control Parameters 
    -------------------------------------------------------------------
        External           Internal           Value            Units
          Name               Name
    -------------------------------------------------------------------
       ABCDTYPE             IABCDT         STANDARD    [  0]    ***   
       ANHARMONIC           IANHAR         OFF         [  0]    ***   
       ANH_ALGORIT          IANALG         STANDARD    [  0]    ***   
       ANH_DERIVAT          IANDER         SECOND      [  1]    ***   
       ANH_MODE             ANHMOD         VIBRATION   [  0]    ***   
       ANH_STEPSIZ          ICUBST             50000          x 10-6  
       ANH_SYMMETR          IANHSM         ABELIAN     [  0]    ***   
       AO_LADDERS           IAOLAD         SINGLEPASS  [  1]    ***   
       AV_SCF               IAVSCF         OFF         [  0]    ***   
       BASIS                IBASIS         AUG-PVTZ    [ 34]    ***   
       BOTHVECTORS          BOTHVC         OFF         [  0]    ***   
       BOX_POTENT           IPIAB          OFF         [  0]    ***   
       BREIT                IBREIT         OFF         [  0]    ***   
       BRUCK_CONV           IBRTOL          10D-  4             ***   
       BRUECKNER            IBRKNR         OFF         [  0]    ***   
       BUFFERSIZE           IBUFFS              4096            ***   
       CACHE_RECS           ICHREC             10               ***   
       CALCLEVEL            ICLLVL         CCSD        [ 10]    ***   
       CCORBOPT             ICCORB         OFF         [  0]  x 0.01  
       CC_CONV              ICCCNV          10D- 10             ***   
       CC_EXPORDER          ICCEOR              5               ***   
       CC_EXTRAPOL          ICCEXT         DIIS        [  1]    ***   
       CC_GUESS             ICCGES         MP2         [  0]    ***   
       CC_MAXCYC            ICCCYC            100              cycles 
       CC_PROGRAM           ICCPRO         VCC         [  0]    ***   
       CHARGE               ICHRGE              0               ***   
       CHOLESKY             ICHOLE         OFF         [  0]    ***   
       CIS_CONV             ICISTL              5               ***   
       COMM_SIZE            IPSIZE            ***               ***   
       CONSTANT             ICONST         OLD         [  1]    ***   
       CONTINUUM            ICONTU         NONE        [  0]    ***   
       CONTRACTION          ICNTYP         GENERAL     [  1]    ***   
       COORDINATES          ICOORD         INTERNAL    [  0]    ***   
       CPHF_CONVER          ICPHFT          10D- 16             ***   
       CPHF_MAXCYC          ICPHFC             64              cycles 
       CUBIC                ICUBIC         OFF         [  0]    ***   
       CURVILINEAR          ICURVY         ON          [  1]    ***   
       DBOC                 IDBOC          ON          [  1]    ***   
       DCT                  IDCT           OFF         [  0]    ***   
       DERIV_LEV            IDRLVL         SECOND      [  2]    ***   
       DEVMEM_SIZE          IDVMEM          50000000           MByte  
       DIAG_MRCC            IEOMST          10D-  0             ***   
       DIFF_TYPE            IDIFTY         RELAXED     [  0]    ***   
       DIRECT               IDIRCT         OFF         [  0]    ***   
       DROPMO               IDRPMO      NONE         
       ECP                  IECP           OFF         [  0]    ***   
       EIGENVECTOR          IVEC                1               ***   
       EL_ANHARM            IELANH         OFF         [  0]    ***   
       EOMFOLLOW            IEOMSR         ENERGY      [  0]    ***   
       EOMIP                IEOMIP         OFF         [  0]    ***   
       EOMLEVEL             HBARFM         SAME        [  0]    ***   
       EOM_MRCC             IMRCCE         NEW         [  1]    ***   
       EOM_NONIT            EOMNON         OFF         [  0]    ***   
       EOM_NSING            IEOMSI          10D-  0             ***   
       EOM_NSTATES          IMRCCD         DAVIDSON    [  0]    ***   
       EOM_NTRIP            IEOMTR          10D-  0             ***   
       EOM_ORDER            IEXORD         ENERGY      [  0]    ***   
       EOM_PROPSTA          IEOMST              0               ***   
       ESTATE_CONV          IEXTOL          10D-  5             ***   
       ESTATE_DIAG          IEXDIG         ITERATIVE   [  0]    ***   
       ESTATE_LOCK          IESLOC         ON          [  1]    ***   
       ESTATE_MAXC          IEXMXC             40               ***   
       ESTATE_PROP          IEXPRP         OFF         [  0]    ***   
       EVAL_HESS            IRECAL              0            # of cyc.
       EXCITATION           IEXCIT              0               ***   
       EXCITE               IEXCIT         NONE        [  0]    ***   
       EXTERN_POT           IEXPOT         OFF         [  0]    ***   
       FCGRADNEW            IFCGNW         OFF         [  0]    ***   
       FC_FIELD             IFINFC              0             x 10-6  
       FD_CALTYPE           IFDCAL         GRADONLY    [  0]    ***   
       FD_PROJECT           IFDPRJ         OFF         [  1]    ***   
       FD_STEPSIZE          IDISFD              0            10-4 bohr
       FD_USEGROUP          IFDGRP         FULL        [  0]    ***   
       FILE_RECSIZ          IFLREC              4096           words  
       FINITE_PERT          IFIPER              0             x 10-6  
       FIXGEOM              IFIXGM         OFF         [  0]    ***   
       FOCK                 IFOCK          AO          [  1]    ***   
       FREQ_ALGORI          IVIALG         STANDARD    [  0]    ***   
       FROZEN_CORE          IFROCO         OFF         [  0]    ***   
       GAMMA_ABCD           IGABCD         STORE       [  0]    ***   
       GAMMA_ABCI           IGABCI         STORE       [  0]    ***   
       GENBAS_1             IGNBS1              0               ***   
       GENBAS_2             IGNBS2              0               ***   
       GENBAS_3             IGNBS3              0               ***   
       GENBAS_4             IGNBS4              0               ***   
       GEO_CONV             ICONTL              5              H/bohr 
       GEO_MAXCYC           IOPTCY             50               ***   
       GEO_MAXSTEP          IMXSTP            300            millibohr
       GEO_METHOD           INR            SINGLE_POINT[  5]    ***   
       GIAO                 IGIAO          OFF         [  1]    ***   
       GIMIC                IGIMIC         OFF         [  0]    ***   
       GRID                 IGRID          OFF         [  0]    ***   
       GRID_ALGO            IGALGO         SERIAL      [  0]    ***   
       GUESS                IGUESS         MOREAD      [  0]    ***   
       HBAR                 IHBAR          OFF         [  0]    ***   
       HESS_TYPE            IHESTP         SCF         [  0]    ***   
       HF2_FILE             IHF2Fl         USE         [  1]    ***   
       HFSTABILITY          ISTABL         OFF         [  0]    ***   
       INCORE               INCORE         OFF         [  0]    ***   
       INPUT_MRCC           IMRCC          ON          [  1]    ***   
       INTEGRALS            INTTYP         VMOL        [  1]    ***   
       JODA_PRINT           IJPRNT              0               ***   
       KEYWORD_OUT          IDMPKW         NO          [  0]    ***   
       LINDEP_TOL           ILINDP              8               ***   
       LINEQ_CONV           IZTACN          10D-  7           cycles  
       LINEQ_EXPOR          ILMAXD              5               ***   
       LINEQ_MAXCY          ILMAXC            100               ***   
       LINEQ_TYPE           ILTYPE         DIIS        [  1]    ***   
       LOCK_ORBOCC          ILOCOC         OFF         [  0]    ***   
       MEMORY_SIZE          IMEMSZ         500000000           words  
       MEM_UNIT             IMEMU          INTEGERWORDS[  0]    ***   
       MRCC                 IMRCCC         OFF         [  0]    ***   
       MULTIPLICTY          IMULTP              1               ***   
       NACOUPLING           IVCOUP         OFF         [  0]    ***   
       NEGEVAL              IDIE           ABORT       [  0]    ***   
       NEWNORM              INEWNO         OFF         [  0]    ***   
       NON-HF               INONHF         OFF         [  0]    ***   
       NTOP_TAMP            ITOPT2             15               ***   
       NUC_MODEL            INUCMO         POINT       [  0]    ***   
       OCCUPATION           IOCCU   ESTIMATED BY SCF 
       OPEN-SHELL           IOPEN          SPIN-ORBITAL[  0]    ***   
       OPTVIB               IOPTVB         OFF         [  0]    ***   
       ORBITALS             IORBTP         STANDARD    [  0]    ***   
       PARALLEL             IPARAL         ON          [  1]    ***   
       PARA_INT             IPINTS         ON          [  1]    ***   
       PARA_PRINT           IPPRIN              0               ***   
       PERT_ORB             IPTORB         STANDARD    [  0]    ***   
       POINTS               IGRDFD              0               ***   
       PRINT                IPRNT               0               ***   
       PROPS                IPROPS         OFF         [  0]    ***   
       PROP_INTEGR          IINTYP         INTERNAL    [  0]    ***   
       PSI                  IPSI           OFF         [  0]    ***   
       QC_ALG               IQCALG         FLM         [  0]    ***   
       QC_LINALG            IQCLIN         TRIDIAG     [  2]    ***   
       QC_MAXCYC            IQCMAX          10D-100           cycles  
       QC_MAXSCFCY          IQCMSC          10D- 15           cycles  
       QC_RTRUST            IQCRTR          10D-  0           x 10-3  
       QC_SKIPSCF           IQCSKI         OFF         [  0]    ***   
       QC_START             IQCSTA          10D-  1             ***   
       QRHFGUESS            IQGUES         OFF         [  0]    ***   
       QUARTIC              IQUART         OFF         [  0]    ***   
       RAMAN_INT            IRAMIN         OFF         [  0]    ***   
       RAMAN_ORB            IRAMRE         UNRELAXED   [  0]    ***   
       RDO                  IRDOFM         ON          [  1]    ***   
       REDUCE_REPR          REDREP         Ir          [  0]    ***   
       REFERENCE            IREFNC         RHF         [  0]    ***   
       RELATIVIST           IRELAT         OFF         [  0]    ***   
       RELAX_DENS           IRDENS         ON          [  1]    ***   
       RESET_FLAGS          IRESET         OFF         [  0]    ***   
       RESTART_CC           ICCRES         OFF         [  0]    ***   
       ROT_EVEC             ROTVEC              0               ***   
       SAVE_INTS            ISVINT         OFF         [  0]    ***   
       SCALE_ON             ISTCRT              0               ***   
       SCF_CONV             ISCFCV          10D- 10             ***   
       SCF_DAMPING          IDAMP               0             x 10-3  
       SCF_EXPORDE          IRPPOR              6               ***   
       SCF_EXPSTAR          IRPPLS              8               ***   
       SCF_EXTRAPO          IRPP           ON          [  1]    ***   
       SCF_MAXCYC           ISCFCY            150              cycles 
       SCF_NOSTOP           ISCFST         OFF         [  0]    ***   
       SCF_PRINT            ISCFPR              0               ***   
       SCF_PROG             ISCFPR         SCF         [  0]    ***   
       SD_FIELD             IFINSD              0             x 10-6  
       SOPERT               IPERSO         OFF         [  0]    ***   
       SPHERICAL            IDFGHI         ON          [  1]    ***   
       SPINORBIT            ISOCAL         OFF         [  0]    ***   
       SPINROTATIO          ISRCON         OFF         [  0]    ***   
       SPIN_FLIP            ISPFLP         OFF         [  0]    ***   
       SPIN_ORBIT           ISPORB         OFF         [  0]    ***   
       SPIN_SCAL            ISCSMP         OFF         [  0]    ***   
       STEEPSCALE           ISTPSC              1000          x 10-3  
       SUBGROUP             ISUBGP         DEFAULT     [  0]    ***   
       SUBGRPAXIS           ISBXYZ         X           [  0]    ***   
       SYMMETRY             ISYM           ON          [  0]    ***   
       SYM_CHECK            ISYMCK         OVERRIDE    [  1]    ***   
       T3_EXTRAPOL          IT3EXT         OFF         [  0]    ***   
       T4_EXTRAPOL          IT4EXP         OFF         [  0]    ***   
       TAMP_SUM             IEVERY              5               ***   
       TESTSUITE            ITESTS         OFF         [  0]    ***   
       THERMOCH             ITHERM         OFF         [  0]    ***   
       TOL_CHOLESK          ITOLCH          10D-  4             ***   
       TRANGRAD             IRESRM         OFF         [  0]    ***   
       TRANS_INV            ITRAIN         IGNORE      [  1]    ***   
       TREAT_PERT           ITREAT         SIMULTANEOUS[  0]    ***   
       TRIP_ALGORI          ITRALG         NORMAL      [  0]    ***   
       UIJ_THRESHO          IUIJTH              1               ***   
       UNITS                IUNITS         ANGSTROM    [  0]    ***   
       UNOS                 IUNOS          OFF         [  0]    ***   
       UPDATE_HESS          IHUPDT         ON          [  1]    ***   
       VIBPHASE             ISETPH         STANDARD    [  0]    ***   
       VIBRATION            IVIB           ANALYTIC    [  1]    ***   
       VIB_ALGORIT          IGEALG         STANDARD    [  0]    ***   
       VNATORB              IVNORB         OFF         [  0]    ***   
       VTRAN                IVTRAN         FULL/PARTIAL[  0]    ***   
       XFIELD               IXEFLD              0             x 10-6  
       XFORM_TOL            IXFTOL          10D- 11             ***   
       YFIELD               IYEFLD              0             x 10-6  
       ZFIELD               IZEFLD              0             x 10-6  
       ZSCALE_EXP           IZEXPS         OFF         [  0]    ***   
    -------------------------------------------------------------------
   3 entries found in Z-matrix 
   Job Title : Hypochlorous acid DBOC calculation                                              
   There are  3 unique internal coordinates.
   Of these,  0 will be optimized.
   User supplied Z-matrix: 
--------------------------------------------------------------------------------
       SYMBOL    BOND      LENGTH    ANGLE     ANGLE     DIHED     ANGLE
                  TO      (ANGST)    WRT      (DEG)      WRT      (DEG)
--------------------------------------------------------------------------------
        O    
        H          1         ROH  
        CL         1         ROCL       2        A    
                  *Initial values for internal coordinates* 
                      Name             Value
                        ROH             0.9600000000
                        ROCL            1.6830000000
                        A             114.9900000000
--------------------------------------------------------------------------------
   Rotational constants (in cm-1): 
          0.4923259808             0.5025013295            24.3131186893
   Rotational constants (in MHz): 
      14759.5636608417         15064.6129824531        728889.0634666211
********************************************************************************
   The full molecular point group is C s .
   The largest Abelian subgroup of the full molecular point group is C s .
   The computational point group is C s .
********************************************************************************
--------------------------------------------------------------------------------
   Analysis of internal coordinates specified by Z-matrix 
--------------------------------------------------------------------------------
   *The nuclear repulsion energy is   51.147614547087883 a.u.
   *There are   3 degrees of freedom within the tot. symm. molecular subspace.
   *Z-matrix requests optimization of   0 coordinates.
   *The optimization is constrained.
   *The following   3 parameters can have non-zero 
    derivatives within the totally symmetric subspace:
             A    [ 3]  ROH  [ 1]  ROCL [ 2]
   *The following   0 parameters are to be optimized:

   *The following coordinates must be varied in an  unconstrained optimization.
             A    [ 3]  ROH  [ 1]  ROCL [ 2]
--------------------------------------------------------------------------------


 ----------------------------------------------------------------
         Coordinates used in calculation (QCOMP) 
 ----------------------------------------------------------------
 Z-matrix   Atomic            Coordinates (in bohr)
  Symbol    Number           X              Y              Z
 ----------------------------------------------------------------
     O         8        -2.12198315     0.11872173    -0.00000000
     H         1        -2.95495441    -1.49287797     0.00000000
     CL       17         1.05576859    -0.01127816     0.00000000
 ----------------------------------------------------------------
 
   Interatomic distance matrix (Angstroms) 
 
                 O             H             CL   
                [ 1]        [ 2]        [ 3]
  O    [ 1]     0.00000
  H    [ 2]     0.96000     0.00000
  CL   [ 3]     1.68300     2.26257     0.00000
 rotcon2
   Rotational constants (in cm-1): 
         24.3131186893             0.5025013295             0.4923259808
   Rotational constants (in MHz): 
     728889.0634666267         15064.6129824531         14759.5636608417
  ECPDATA file not present.   Using default ECPDATA. 
  @GTFLGS-I, Hessian will be transformed to curvilinear coordinates.
  There are  124 basis functions.
 @CHECKOUT-I, Total execution time (CPU/WALL):        0.17/       0.26 seconds.
--executable xjoda finished with status     0 in        0.30 seconds (walltime).
 --invoking executable--
/home/asmola/.local/bin/xvmol
 SERIAL VERSION OF MOLECULE STARTED
********************************************************************************
                    INPUT FROM MOL FILE
********************************************************************************
INTGRL        1    0    1    0    0    0    0    0    0                         
         *** CFOUR Program System (Release V0.1) ***                            
Hypochlorous acid DBOC calculation                                              
    3    1 Z          0.10E-08              0    0                              
   9999.00      3.00                                                            
          8.00000000    1    4    1    1    1    1                              
O #1  -2.121983147908776   0.118721733317826  -0.000000000000001                
   11    5                                                                      
   15330.0000000000       5.080000000000000E-004 -1.150000000000000E-004        
  0.000000000000000E+000  0.000000000000000E+000  0.000000000000000E+000        
   2299.00000000000       3.929000000000000E-003 -8.950000000000000E-004        
  0.000000000000000E+000  0.000000000000000E+000  0.000000000000000E+000        
   522.400000000000       2.024300000000000E-002 -4.636000000000000E-003        
  0.000000000000000E+000  0.000000000000000E+000  0.000000000000000E+000        
   147.300000000000       7.918100000000000E-002 -1.872400000000000E-002        
  0.000000000000000E+000  0.000000000000000E+000  0.000000000000000E+000        
   47.5500000000000       0.230687000000000      -5.846300000000000E-002        
  0.000000000000000E+000  0.000000000000000E+000  0.000000000000000E+000        
   16.7600000000000       0.433118000000000      -0.136463000000000             
  0.000000000000000E+000  0.000000000000000E+000  0.000000000000000E+000        
   6.20700000000000       0.350260000000000      -0.175740000000000             
  0.000000000000000E+000  0.000000000000000E+000  0.000000000000000E+000        
   1.75200000000000       4.272800000000000E-002  0.160934000000000             
   1.00000000000000       0.000000000000000E+000  0.000000000000000E+000        
  0.688200000000000      -8.154000000000000E-003  0.603418000000000             
  0.000000000000000E+000  0.000000000000000E+000  0.000000000000000E+000        
  0.238400000000000       2.381000000000000E-003  0.378765000000000             
  0.000000000000000E+000   1.00000000000000       0.000000000000000E+000        
  7.376000000000001E-002  0.000000000000000E+000  0.000000000000000E+000        
  0.000000000000000E+000  0.000000000000000E+000   1.00000000000000             
    6    4                                                                      
   34.4600000000000       1.592800000000000E-002  0.000000000000000E+000        
  0.000000000000000E+000  0.000000000000000E+000                                
   7.74900000000000       9.974000000000000E-002  0.000000000000000E+000        
  0.000000000000000E+000  0.000000000000000E+000                                
   2.28000000000000       0.310492000000000       0.000000000000000E+000        
  0.000000000000000E+000  0.000000000000000E+000                                
  0.715600000000000       0.491026000000000        1.00000000000000             
  0.000000000000000E+000  0.000000000000000E+000                                
  0.214000000000000       0.336337000000000       0.000000000000000E+000        
   1.00000000000000       0.000000000000000E+000                                
  5.974000000000000E-002  0.000000000000000E+000  0.000000000000000E+000        
  0.000000000000000E+000   1.00000000000000                                     
    3    3                                                                      
   2.31400000000000        1.00000000000000       0.000000000000000E+000        
  0.000000000000000E+000                                                        
  0.645000000000000       0.000000000000000E+000   1.00000000000000             
  0.000000000000000E+000                                                        
  0.214000000000000       0.000000000000000E+000  0.000000000000000E+000        
   1.00000000000000                                                             
    2    2                                                                      
   1.42800000000000        1.00000000000000       0.000000000000000E+000        
  0.500000000000000       0.000000000000000E+000   1.00000000000000             
          1.00000000    1    3    1    1    1                                   
H #2  -2.954954405681801  -1.492877970989108   0.000000000000004                
    6    4                                                                      
   33.8700000000000       6.068000000000000E-003  0.000000000000000E+000        
  0.000000000000000E+000  0.000000000000000E+000                                
   5.09500000000000       4.530800000000000E-002  0.000000000000000E+000        
  0.000000000000000E+000  0.000000000000000E+000                                
   1.15900000000000       0.202822000000000       0.000000000000000E+000        
  0.000000000000000E+000  0.000000000000000E+000                                
  0.325800000000000       0.503903000000000        1.00000000000000             
  0.000000000000000E+000  0.000000000000000E+000                                
  0.102700000000000       0.383421000000000       0.000000000000000E+000        
   1.00000000000000       0.000000000000000E+000                                
  2.526000000000000E-002  0.000000000000000E+000  0.000000000000000E+000        
  0.000000000000000E+000   1.00000000000000                                     
    3    3                                                                      
   1.40700000000000        1.00000000000000       0.000000000000000E+000        
  0.000000000000000E+000                                                        
  0.388000000000000       0.000000000000000E+000   1.00000000000000             
  0.000000000000000E+000                                                        
  0.102000000000000       0.000000000000000E+000  0.000000000000000E+000        
   1.00000000000000                                                             
    2    2                                                                      
   1.05700000000000        1.00000000000000       0.000000000000000E+000        
  0.247000000000000       0.000000000000000E+000   1.00000000000000             
         17.00000000    1    4    1    1    1    1                              
CL#3   1.055768589807296  -0.011278156562013   0.000000000000000                
   16    6                                                                      
   456100.000000000       4.929700000000000E-005 -1.383040000000000E-005        
  0.000000000000000E+000  4.185460000000000E-006  0.000000000000000E+000        
  0.000000000000000E+000                                                        
   68330.0000000000       3.830290000000000E-004 -1.072790000000000E-004        
  0.000000000000000E+000  3.243950000000000E-005  0.000000000000000E+000        
  0.000000000000000E+000                                                        
   15550.0000000000       2.008540000000000E-003 -5.650830000000000E-004        
  0.000000000000000E+000  1.711050000000000E-004  0.000000000000000E+000        
  0.000000000000000E+000                                                        
   4405.00000000000       8.385580000000000E-003 -2.361350000000000E-003        
  0.000000000000000E+000  7.141760000000000E-004  0.000000000000000E+000        
  0.000000000000000E+000                                                        
   1439.00000000000       2.947030000000000E-002 -8.458860000000000E-003        
  0.000000000000000E+000  2.567050000000000E-003  0.000000000000000E+000        
  0.000000000000000E+000                                                        
   520.400000000000       8.783249999999999E-002 -2.596380000000000E-002        
  0.000000000000000E+000  7.885520000000000E-003  0.000000000000000E+000        
  0.000000000000000E+000                                                        
   203.100000000000       0.211473000000000      -6.863619999999999E-002        
  0.000000000000000E+000  2.108670000000000E-002  0.000000000000000E+000        
  0.000000000000000E+000                                                        
   83.9600000000000       0.365364000000000      -0.141874000000000             
  0.000000000000000E+000  4.422640000000000E-002  0.000000000000000E+000        
  0.000000000000000E+000                                                        
   36.2000000000000       0.340884000000000      -0.199319000000000             
  0.000000000000000E+000  6.516700000000000E-002  0.000000000000000E+000        
  0.000000000000000E+000                                                        
   15.8300000000000       0.102133000000000      -1.956620000000000E-002        
  0.000000000000000E+000  6.030120000000000E-003  0.000000000000000E+000        
  0.000000000000000E+000                                                        
   6.33400000000000       3.116750000000000E-003  0.499741000000000             
  0.000000000000000E+000 -0.206495000000000       0.000000000000000E+000        
  0.000000000000000E+000                                                        
   2.69400000000000       1.057510000000000E-003  0.563736000000000             
  0.000000000000000E+000 -0.405871000000000       0.000000000000000E+000        
  0.000000000000000E+000                                                        
  0.976800000000000      -3.780000000000000E-004  7.903250000000001E-002        
   1.00000000000000       7.595580000000000E-002  0.000000000000000E+000        
  0.000000000000000E+000                                                        
  0.431300000000000       1.561360000000000E-004 -8.350910000000000E-003        
  0.000000000000000E+000  0.725661000000000       0.000000000000000E+000        
  0.000000000000000E+000                                                        
  0.162500000000000      -5.141260000000000E-005  2.324560000000000E-003        
  0.000000000000000E+000  0.394423000000000        1.00000000000000             
  0.000000000000000E+000                                                        
  5.910000000000000E-002  0.000000000000000E+000  0.000000000000000E+000        
  0.000000000000000E+000  0.000000000000000E+000  0.000000000000000E+000        
   1.00000000000000                                                             
   10    5                                                                      
   663.300000000000       2.404480000000000E-003  0.000000000000000E+000        
 -6.521450000000000E-004  0.000000000000000E+000  0.000000000000000E+000        
   156.800000000000       1.921480000000000E-002  0.000000000000000E+000        
 -5.194450000000000E-003  0.000000000000000E+000  0.000000000000000E+000        
   49.9800000000000       8.850970000000000E-002  0.000000000000000E+000        
 -2.469380000000000E-002  0.000000000000000E+000  0.000000000000000E+000        
   18.4200000000000       0.256020000000000       0.000000000000000E+000        
 -7.281670000000000E-002  0.000000000000000E+000  0.000000000000000E+000        
   7.24000000000000       0.436927000000000       0.000000000000000E+000        
 -0.134030000000000       0.000000000000000E+000  0.000000000000000E+000        
   2.92200000000000       0.350334000000000       0.000000000000000E+000        
 -9.477420000000000E-002  0.000000000000000E+000  0.000000000000000E+000        
   1.02200000000000       5.854950000000000E-002   1.00000000000000             
  0.262289000000000       0.000000000000000E+000  0.000000000000000E+000        
  0.381800000000000      -4.584230000000000E-003  0.000000000000000E+000        
  0.564667000000000       0.000000000000000E+000  0.000000000000000E+000        
  0.130100000000000       2.269700000000000E-003  0.000000000000000E+000        
  0.341250000000000        1.00000000000000       0.000000000000000E+000        
  4.190000000000000E-002  0.000000000000000E+000  0.000000000000000E+000        
  0.000000000000000E+000  0.000000000000000E+000   1.00000000000000             
    4    4                                                                      
   4.61000000000000        1.00000000000000       0.000000000000000E+000        
  0.000000000000000E+000  0.000000000000000E+000                                
   1.01100000000000       0.000000000000000E+000   1.00000000000000             
  0.000000000000000E+000  0.000000000000000E+000                                
  0.339000000000000       0.000000000000000E+000  0.000000000000000E+000        
   1.00000000000000       0.000000000000000E+000                                
  0.130000000000000       0.000000000000000E+000  0.000000000000000E+000        
  0.000000000000000E+000   1.00000000000000                                     
    2    2                                                                      
  0.706000000000000        1.00000000000000       0.000000000000000E+000        
  0.312000000000000       0.000000000000000E+000   1.00000000000000             
FINISH                                                                          
 
********************************************************************************
 ONE- AND TWO-ELECTRON INTEGRALS OVER SYMMETRY-ADAPTED AOS ARE CALCULATED.

  SPHERICAL HARMONICS ARE USED.
  
  INTEGRALS LESS THAN  0.10E-13 ARE NEGLECTED.

  NUCLEAR REPULSION ENERGY :   51.1476145471 A.U.
  @MOLECU-I, ONE ELECTRON INTEGRALS (CPU/WALL):        0.04/       0.04 SECONDS.
  @TWOEL-I,    5908213 INTEGRALS OF SYMMETRY TYPE  I I I I
  @TWOEL-I,    5650224 INTEGRALS OF SYMMETRY TYPE  I J I J
  @TWOEL-I,    2920893 INTEGRALS OF SYMMETRY TYPE  I I J J
  @TWOEL-I, TOTAL NUMBER OF 2-E INTEGRALS   14479330.
  @MOLECU-I, TWO ELECTRON INTEGRALS (CPU/WALL):       37.91/       4.96 SECONDS.
 @CHECKOUT-I, Total execution time (CPU/WALL):       37.96/       5.02 seconds.

Running with 14 threads/proc

--executable xvmol finished with status     0 in        5.18 seconds (walltime).
 --invoking executable--
/home/asmola/.local/bin/xvmol2ja
 @GETMEM-I,  Allocated    3814 MB of main memory.
 @CHECKOUT-I, Total execution time (CPU/WALL):        0.07/       0.03 seconds.
--executable xvmol2ja finished with status     0 in        0.08 seconds (walltime).
 --invoking executable--
/home/asmola/.local/bin/xvscf
  There are  124 functions in the AO basis.

  There are 2 irreducible representations.

       Irrep        # of functions
         1                 82
         2                 42


  Parameters for SCF calculation: 
        SCF reference function:  RHF  
  Maximum number of iterations:  150
     Full symmetry point group: C s 
     Computational point group: C s 
        Initial density matrix: MOREAD                 
     SCF convergence tolerance: 10**(-10)
  DIIS convergence acceleration:  ON
          Latest start for DIIS:   8
                     DIIS order:   6

  Memory information:     774068 words required.
  Fock matrices are constructed from AO integral file.
 @GETMEM-I,  Allocated       5 MB of main memory.
  Initialization and symmetry analysis required      0.002 seconds.

  @INITGES-I, Occupancies from core Hamiltonian:

          Alpha population by irrep:  10    3
           Beta population by irrep:  10    3


 total no. of electrons in initial guess :  0.000000000000000E+000
  --------------------------------------------------------------------
  Iteration         Total Energy            Largest Density Difference
  --------------------------------------------------------------------
       0            51.147614547087883              0.0000000000D+00
   current occupation vector 
    10  3
    10  3
       1          -414.734254234112598              0.1578803290D+02
   current occupation vector 
    10  3
    10  3
       2          -337.983538783675215              0.1578360540D+02
   current occupation vector 
    10  3
    10  3
       3          -435.071631697633052              0.1057522789D+02
   current occupation vector 
    10  3
    10  3
       4          -336.056095176610427              0.1057615120D+02
   current occupation vector 
    10  3
    10  3
       5          -435.389126377760476              0.1051637787D+02
   current occupation vector 
    10  3
    10  3
       6          -336.013292531626803              0.1051638091D+02
   current occupation vector 
    10  3
    10  3
       7          -435.401212916596648              0.1051409575D+02
   current occupation vector 
    10  3
    10  3
       8          -336.011783965728455              0.1051409563D+02
   current occupation vector 
    10  3
    10  3
       9          -472.332040178294278              0.7894083689D+01
   current occupation vector 
    10  3
    10  3
      10          -486.526803352674392              0.2586763404D+01
   current occupation vector 
    10  3
    10  3
      11          -515.760826280297010              0.2249096415D+01
   current occupation vector 
    11  2
    11  2
      12          -531.110814197105583              0.1168063625D+01
   current occupation vector 
    11  2
    11  2
      13          -533.731500147988982              0.7161479399D+00
   current occupation vector 
    11  2
    11  2
      14          -534.499708564983052              0.8199257345D+00
   current occupation vector 
    11  2
    11  2
      15          -534.535310066470174              0.2682980273D+00
   current occupation vector 
    11  2
    11  2
      16          -534.544863268372069              0.1295938075D+00
   current occupation vector 
    11  2
    11  2
      17          -534.552056527705986              0.8832776458D-01
   current occupation vector 
    11  2
    11  2
      18          -534.553649428578638              0.6711187514D-01
   current occupation vector 
    11  2
    11  2
      19          -534.553686912996682              0.9461432047D-02
   current occupation vector 
    11  2
    11  2
      20          -534.553694044183203              0.3569080901D-02
   current occupation vector 
    11  2
    11  2
      21          -534.553694979151260              0.1108469148D-02
   current occupation vector 
    11  2
    11  2
      22          -534.553695083036814              0.4443794134D-03
   current occupation vector 
    11  2
    11  2
      23          -534.553695087245615              0.1096224369D-03
   current occupation vector 
    11  2
    11  2
      24          -534.553695087548590              0.2336601219D-04
   current occupation vector 
    11  2
    11  2
      25          -534.553695087579285              0.8955574284D-05
   current occupation vector 
    11  2
    11  2
      26          -534.553695087585993              0.1560785058D-05
   current occupation vector 
    11  2
    11  2
      27          -534.553695087587471              0.6767174010D-06
   current occupation vector 
    11  2
    11  2
      28          -534.553695087584856              0.1940098438D-06
   current occupation vector 
    11  2
    11  2
      29          -534.553695087585993              0.5626048444D-07
   current occupation vector 
    11  2
    11  2
      30          -534.553695087579285              0.1748385925D-07
   current occupation vector 
    11  2
    11  2
      31          -534.553695087584970              0.6732345348D-08
   current occupation vector 
    11  2
    11  2
      32          -534.553695087582696              0.1746947476D-08
   current occupation vector 
    11  2
    11  2
      33          -534.553695087582241              0.8469709378D-09
   current occupation vector 
    11  2
    11  2
      34          -534.553695087583264              0.2038738067D-09
   current occupation vector 
    11  2
    11  2
      35          -534.553695087578717              0.1289187923D-09
   current occupation vector 
    11  2
    11  2
      36          -534.553695087583264              0.1118129755D-09
   current occupation vector 
    11  2
    11  2

  SCF has converged.

 Density matrix saved to file den.dat
 total electron number:   26.0000000000001     
     E(SCF)=      -534.553695087584629              0.4145397914D-10


  Final occupancies:

     Alpha population by irrep:  11    2
      Beta population by irrep:  11    2


  Eigenvector printing suppressed.

 @PUTMOS-I, Writing converged MOs to NEWMOS. 
 @PUTMOS-I, Symmetry   1 Full Blocks 20 Partial Blocksize   2
 @PUTMOS-I, Symmetry   2 Full Blocks 10 Partial Blocksize   2
 @PUTFOCK-I, Writing converged Fock matrix to NEWFOCK. 
 @PUTFOCK-I, Symmetry   1 Full Blocks 20 Partial Blocksize   2
 @PUTFOCK-I, Symmetry   2 Full Blocks 10 Partial Blocksize   2


 
  ORBITAL EIGENVALUES (ALPHA)  (1H = 27.2113834 eV)

       MO #        E(hartree)               E(eV)           FULLSYM    COMPSYM
       ----   --------------------   --------------------   -------   ---------
    1     1        -104.9128632282       -2854.8241448946     A'        A'  (1)
    2     2         -20.6601376350        -562.1909262815     A'        A'  (1)
    3     3         -10.6299672313        -289.2561138605     A'        A'  (1)
    4    83          -8.0948755869        -220.2727631717     A''       A'' (2)
    5     4          -8.0942669883        -220.2562023617     A'        A'  (1)
    6     5          -8.0908261373        -220.1625720455     A'        A'  (1)
    7     6          -1.4312912904         -38.9474160600     A'        A'  (1)
    8     7          -1.0785082783         -29.3477022603     A'        A'  (1)
    9     8          -0.7582581066         -20.6332520556     A'        A'  (1)
   10     9          -0.6700419500         -18.2327683954     A'        A'  (1)
   11    84          -0.5265719489         -14.3287511888     A''       A'' (2)
   12    10          -0.4835956440         -13.1593064790     A'        A'  (1)
   13    11          -0.2755947002          -7.4993130501     A'        A'  (1)
  +++++++++++++++++++++++++++++++++++++++++++++++++++++++++++++++++++++++++++++
   14    85          -0.0967168932          -2.6318004610     A''       A'' (2)
   15    12           0.0285052853           0.7756682480     A'        A'  (1)
   16    13           0.1048700471           2.8536590582     A'        A'  (1)
   17    86           0.1110626869           3.0221693544     A''       A'' (2)
   18    14           0.1130174991           3.0753624987     A'        A'  (1)
   19    15           0.1461595948           3.9772047705     A'        A'  (1)
   20    16           0.1666672860           4.5352474192     A'        A'  (1)
   21    17           0.1691539906           4.6029140910     A'        A'  (1)
   22    87           0.1824726975           4.9653345308     A''       A'' (2)
   23    18           0.2376393965           6.4664967281     A'        A'  (1)
   24    88           0.2520370486           6.8582767610     A''       A'' (2)
   25    19           0.3003273043           8.1723214239     A'        A'  (1)
   26    20           0.3083939266           8.3918253741     A'        A'  (1)
   27    89           0.3631277825           9.8812093122     A''       A'' (2)
   28    21           0.3780752839          10.2879515037     A'        A'  (1)
   29    90           0.4104670402          11.1693760052     A''       A'' (2)
   30    22           0.4147761504          11.2866328545     A'        A'  (1)
   31    23           0.4395026528          11.9594751914     A'        A'  (1)
   32    24           0.4811146423          13.0917949902     A'        A'  (1)
   33    91           0.5982996937          16.2805623535     A''       A'' (2)
   34    25           0.6130090873          16.6808253030     A'        A'  (1)
   35    26           0.6712865028          18.2666343994     A'        A'  (1)
   36    27           0.6875985525          18.7105078363     A'        A'  (1)
   37    92           0.6984225530          19.0050438651     A''       A'' (2)
   38    28           0.7176183761          19.5273887682     A'        A'  (1)
   39    93           0.7470842941          20.3291971594     A''       A'' (2)
   40    29           0.7814102196          21.2632530792     A'        A'  (1)
   41    30           0.8366940462          22.7676024794     A'        A'  (1)
   42    94           0.8476523149          23.0657921303     A''       A'' (2)
   43    95           0.8745408559          23.7974665283     A''       A'' (2)
   44    31           0.8849229693          24.0799781984     A'        A'  (1)
   45    32           0.9063457407          24.6629214430     A'        A'  (1)
   46    96           0.9158428796          24.9213517311     A''       A'' (2)
   47    33           0.9172775127          24.9603900825     A'        A'  (1)
   48    34           0.9529212909          25.9303065958     A'        A'  (1)
   49    35           0.9779666104          26.6118243887     A'        A'  (1)
   50    97           1.0026370374          27.2831408361     A''       A'' (2)
   51    36           1.0077958597          27.4235195282     A'        A'  (1)
   52    98           1.1127415687          30.2792374522     A''       A'' (2)
   53    37           1.1287382425          30.7145290753     A'        A'  (1)
   54    99           1.1960820373          32.5470468955     A''       A'' (2)
   55    38           1.2047794166          32.7837146183     A'        A'  (1)
   56    39           1.2745998686          34.6836257053     A'        A'  (1)
   57    40           1.3383800409          36.4191724265     A'        A'  (1)
   58   100           1.3691679284          37.2569534379     A''       A'' (2)
   59    41           1.3990530954          38.0701701766     A'        A'  (1)
   60   101           1.5020109786          40.8717966089     A''       A'' (2)
   61   102           1.5481908044          42.1284135557     A''       A'' (2)
   62    42           1.6159397643          43.9719564777     A'        A'  (1)
   63    43           1.6745316882          45.5663237825     A'        A'  (1)
   64    44           1.7233291817          46.8941710889     A'        A'  (1)
   65    45           1.8917200816          51.4763204247     A'        A'  (1)
   66    46           2.0728025944          56.4038261094     A'        A'  (1)
   67   103           2.1380431418          58.1791116560     A''       A'' (2)
   68    47           2.2046644979          59.9919709209     A'        A'  (1)
   69   104           2.2240068415          60.5183028492     A''       A'' (2)
   70    48           2.2576771838          61.4345194429     A'        A'  (1)
   71   105           2.2613123333          61.5334368873     A''       A'' (2)
   72    49           2.3164318649          63.0333155951     A'        A'  (1)
   73    50           2.3617896550          64.2675638114     A'        A'  (1)
   74    51           2.4008760745          65.3311593594     A'        A'  (1)
   75   106           2.4029362562          65.3872197531     A''       A'' (2)
   76   107           2.4282018434          66.0747313341     A''       A'' (2)
   77    52           2.4556037147          66.8203741596     A'        A'  (1)
   78   108           2.4747192214          67.3405335399     A''       A'' (2)
   79    53           2.5018206807          68.0780017401     A'        A'  (1)
   80    54           2.5326973329          68.9181981610     A'        A'  (1)
   81   109           2.7145348331          73.8662480973     A''       A'' (2)
   82    55           2.8410822745          77.3097790420     A'        A'  (1)
   83   110           2.9012196612          78.9462005280     A''       A'' (2)
   84    56           2.9494489561          80.2585863641     A'        A'  (1)
   85    57           2.9774858891          81.0215100960     A'        A'  (1)
   86   111           3.0122486097          81.9674518133     A''       A'' (2)
   87    58           3.0268906948          82.3658832049     A'        A'  (1)
   88    59           3.1103020511          84.6356216028     A'        A'  (1)
   89   112           3.1140480552          84.7375555555     A''       A'' (2)
   90    60           3.2963079816          89.6971002913     A'        A'  (1)
   91   113           3.3485635496          91.1190465867     A''       A'' (2)
   92    61           3.4153939352          92.9375938340     A'        A'  (1)
   93    62           3.6558536219          99.4808345585     A'        A'  (1)
   94    63           3.7459901876         101.9335752067     A'        A'  (1)
   95   114           4.1318887081         112.4344078025     A''       A'' (2)
   96   115           4.1531052091         113.0117381444     A''       A'' (2)
   97    64           4.2742825708         116.3091417941     A'        A'  (1)
   98   116           4.3567413978         118.5529605508     A''       A'' (2)
   99    65           4.5733623063         124.4475151428     A'        A'  (1)
  100    66           4.7194926585         128.4239241838     A'        A'  (1)
  101    67           4.8160704760         131.0519402035     A'        A'  (1)
  102    68           5.1813437382         140.9915309882     A'        A'  (1)
  103   117           5.2893494406         143.9305155639     A''       A'' (2)
  104    69           5.5592817282         151.2757465347     A'        A'  (1)
  105    70           6.1031983772         166.0764710083     A'        A'  (1)
  106    71           6.2760955638         170.7812426411     A'        A'  (1)
  107   118           6.5905817154         179.3388458877     A''       A'' (2)
  108    72           6.6268827364         180.3266468872     A'        A'  (1)
  109   119           6.7097028461         182.5802966452     A''       A'' (2)
  110    73           6.7632501484         184.0373928169     A'        A'  (1)
  111   120           7.0864893749         192.8331793405     A''       A'' (2)
  112    74           7.1317658992         194.0652162030     A'        A'  (1)
  113   121           7.1480169585         194.5074300067     A''       A'' (2)
  114   122           7.2339379072         196.8454578858     A''       A'' (2)
  115    75           7.2480279153         197.2288664970     A'        A'  (1)
  116    76           7.4387194514         202.4178469966     A'        A'  (1)
  117    77           7.6528541283         208.2447477883     A'        A'  (1)
  118    78           8.0330133960         218.5894073759     A'        A'  (1)
  119   123           8.7357180061         237.7109719390     A''       A'' (2)
  120    79           8.7375752368         237.7615097558     A'        A'  (1)
  121   124           8.8059294840         239.6215233834     A''       A'' (2)
  122    80           8.8944141186         242.0293126987     A'        A'  (1)
  123    81           9.2646009310         252.1026079821     A'        A'  (1)
  124    82          14.5148659644         394.9695827566     A'        A'  (1)


  VSCF finished.

 @CHECKOUT-I, Total execution time (CPU/WALL):       41.78/       5.26 seconds.
--executable xvscf finished with status     0 in        5.32 seconds (walltime).
 --invoking executable--
/home/asmola/.local/bin/xvtran
 @GETMEM-I,  Allocated    3814 MB of main memory.
  Full RHF integral transformation
  Transformation of IIII integrals :
  1 pass through the AO integral file was required.
     5908213 AO integrals were read.
     6200062 MO integrals were written to HF2.
  Transformation of IIJJ integrals :
  1 pass through the AO integral file was required.
     2920893 AO integrals were read.
     3072909 MO integrals were written to HF2.
  Transformation of IJIJ integrals :
  1 pass through the AO integral file was required.
     5650224 AO integrals were read.
     5932290 MO integrals were written to HF2.
  Summary of active molecular orbitals: 
------------------------------------------------------------------------
 
  Index      Eigenvalue    Symmetry    Index      Eigenvalue    Symmetry
------------------------------------------------------------------------
     1      -104.9128632        1        63         3.4153939        1
     2       -20.6601376        1        64         3.6558536        1
     3       -10.6299672        1        65         3.7459902        1
     4        -8.0942670        1        66         4.2742826        1
     5        -8.0908261        1        67         4.5733623        1
     6        -1.4312913        1        68         4.7194927        1
     7        -1.0785083        1        69         4.8160705        1
     8        -0.7582581        1        70         5.1813437        1
     9        -0.6700419        1        71         5.5592817        1
    10        -0.4835956        1        72         6.1031984        1
    11        -0.2755947        1        73         6.2760956        1
    12        -8.0948756        2        74         6.6268827        1
    13        -0.5265719        2        75         6.7632501        1
    14         0.0285053        1        76         7.1317659        1
    15         0.1048700        1        77         7.2480279        1
    16         0.1130175        1        78         7.4387195        1
    17         0.1461596        1        79         7.6528541        1
    18         0.1666673        1        80         8.0330134        1
    19         0.1691540        1        81         8.7375752        1
    20         0.2376394        1        82         8.8944141        1
    21         0.3003273        1        83         9.2646009        1
    22         0.3083939        1        84        14.5148660        1
    23         0.3780753        1        85        -0.0967169        2
    24         0.4147762        1        86         0.1110627        2
    25         0.4395027        1        87         0.1824727        2
    26         0.4811146        1        88         0.2520370        2
    27         0.6130091        1        89         0.3631278        2
    28         0.6712865        1        90         0.4104670        2
    29         0.6875986        1        91         0.5982997        2
    30         0.7176184        1        92         0.6984226        2
    31         0.7814102        1        93         0.7470843        2
    32         0.8366940        1        94         0.8476523        2
    33         0.8849230        1        95         0.8745409        2
    34         0.9063457        1        96         0.9158429        2
    35         0.9172775        1        97         1.0026370        2
    36         0.9529213        1        98         1.1127416        2
    37         0.9779666        1        99         1.1960820        2
    38         1.0077959        1       100         1.3691679        2
    39         1.1287382        1       101         1.5020110        2
    40         1.2047794        1       102         1.5481908        2
    41         1.2745999        1       103         2.1380431        2
    42         1.3383800        1       104         2.2240068        2
    43         1.3990531        1       105         2.2613123        2
    44         1.6159398        1       106         2.4029363        2
    45         1.6745317        1       107         2.4282018        2
    46         1.7233292        1       108         2.4747192        2
    47         1.8917201        1       109         2.7145348        2
    48         2.0728026        1       110         2.9012197        2
    49         2.2046645        1       111         3.0122486        2
    50         2.2576772        1       112         3.1140481        2
    51         2.3164319        1       113         3.3485635        2
    52         2.3617897        1       114         4.1318887        2
    53         2.4008761        1       115         4.1531052        2
    54         2.4556037        1       116         4.3567414        2
    55         2.5018207        1       117         5.2893494        2
    56         2.5326973        1       118         6.5905817        2
    57         2.8410823        1       119         6.7097028        2
    58         2.9494490        1       120         7.0864894        2
    59         2.9774859        1       121         7.1480170        2
    60         3.0268907        1       122         7.2339379        2
    61         3.1103021        1       123         8.7357180        2
    62         3.2963080        1       124         8.8059295        2
------------------------------------------------------------------------
  -104.912863228212       -20.6601376349536       -10.6299672313044     
  -8.09426698834218       -8.09082613732638       -1.43129129039387     
  -1.07850827827698      -0.758258106626818      -0.670041949996180     
 -0.483595643984428      -0.275594700196803       -8.09487558694675     
 -0.526571948884776       2.850528532899487E-002  0.104870047078340     
  0.113017499090637       0.146159594757007       0.166667285985721     
  0.169153990568226       0.237639396463060       0.300327304342204     
  0.308393926570048       0.378075283878817       0.414776150427653     
  0.439502652825790       0.481114642271414       0.613009087330364     
  0.671286502817797       0.687598552460008       0.717618376146567     
  0.781410219634473       0.836694046190408       0.884922969348372     
  0.906345740695695       0.917277512707753       0.952921290867409     
  0.977966610426932        1.00779585973404        1.12873824251280     
   1.20477941662825        1.27459986857015        1.33838004085080     
   1.39905309542735        1.61593976430233        1.67453168818119     
   1.72332918174776        1.89172008155758        2.07280259442274     
   2.20466449790712        2.25767718384100        2.31643186487649     
   2.36178965496596        2.40087607451148        2.45560371471451     
   2.50182068068292        2.53269733287338        2.84108227448483     
   2.94944895613474        2.97748588908721        3.02689069475477     
   3.11030205112038        3.29630798158090        3.41539393524729     
   3.65585362185172        3.74599018757480        4.27428257080398     
   4.57336230626063        4.71949265849432        4.81607047598510     
   5.18134373823081        5.55928172820133        6.10319837720279     
   6.27609556378192        6.62688273640687        6.76325014835269     
   7.13176589922964        7.24802791529671        7.43871945138317     
   7.65285412825820        8.03301339600196        8.73757523683387     
   8.89441411856640        9.26460093102447        14.5148659643887     
 -9.671689316045289E-002  0.111062686891231       0.182472697467631     
  0.252037048618420       0.363127782478913       0.410467040246724     
  0.598299693703999       0.698422553009459       0.747084294121096     
  0.847652314888163       0.874540855878414       0.915842879604302     
   1.00263703741361        1.11274156874266        1.19608203732529     
   1.36916792837159        1.50201097857081        1.54819080443039     
   2.13804314175333        2.22400684153285        2.26131233325478     
   2.40293625619591        2.42820184342878        2.47471922136606     
   2.71453483314381        2.90121966118079        3.01224860965165     
   3.11404805517938        3.34856354957300        4.13188870811088     
   4.15310520906460        4.35674139782421        5.28934944056766     
   6.59058171543537        6.70970284609778        7.08648937490243     
   7.14801695847335        7.23393790724499        8.73571800612805     
   8.80592948403411     
 @CHECKOUT-I, Total execution time (CPU/WALL):       14.29/       7.14 seconds.
--executable xvtran finished with status     0 in        7.19 seconds (walltime).
 --invoking executable--
/home/asmola/.local/bin/xintprc
 @GETMEM-I,  Allocated    3814 MB of main memory.
  Processing integrals for CCSD calculation.
  @GMOIAA-I, Processing MO integrals for spin case AA.
  @GMOIAA-I, Generation of integral list completed.
                      TYPE                NUMBER
                      ----               --------
                      PPPP               9734596
                      PPPH               4559616
                      PPHH                540744
                      PHPH                295424
                      PHHH                 72213
                      HHHH                  2668

                     TOTAL              15205261

  @FORMT2-I, Second-order MP correlation energies:
            ------------------------------------------------
            E(SCF)                  =   -534.553695087585 a.u.
            E2(AA)                  =     -0.080750449817 a.u.
            E2(AB)                  =     -0.462547218681 a.u.
            E2(TOT)                 =     -0.624048118314 a.u.
            Total MP2 energy        =   -535.177743205899 a.u.
            ------------------------------------------------
   Largest T2 amplitudes for spin case AB:
       _       _                 _       _                 _       _
   i   j   a   b             i   j   a   b             i   j   a   b
-----------------------------------------------------------------------------
[ 13  13  85  85]-0.17463 [ 11  11  85  85]-0.05421 [  7   7  85  85]-0.03101
[ 13  13  87  85]-0.02910 [ 13  13  85  87]-0.02910 [ 11  11  26  26]-0.02340
[ 13  11  85  37] 0.02336 [ 11  13  37  85] 0.02336 [ 10  10  85  85]-0.02318
[ 13  13  90  85]-0.02198 [ 13  13  85  90]-0.02198 [  6   6  85  85]-0.01746
[ 13  11  85  26]-0.01715 [ 11  13  26  85]-0.01715 [ 13   8  85  26]-0.01691
-----------------------------------------------------------------------------
   Norm of T2AB vector (  1080045 symmetry allowed elements):  0.3866260079.
-----------------------------------------------------------------------------
 @CHECKOUT-I, Total execution time (CPU/WALL):        3.26/       2.42 seconds.
--executable xintprc finished with status     0 in        2.61 seconds (walltime).
  calling xvcc 
 --invoking executable--
/home/asmola/.local/bin/xvcc
 @GETMEM-I,  Allocated    3814 MB of main memory.
   CCSD energy will be calculated.
   The total correlation energy is -0.624048118314 a.u.
   The total correlation energy is -0.607579065285 a.u.
  Convergence information after     1 iterations: 
  Largest element of residual vector : -0.52325761E-01.
  Largest element of DIIS residual   : -0.52325761E-01.
   The total correlation energy is -0.634032591377 a.u.
  Convergence information after     2 iterations: 
  Largest element of residual vector : -0.80589868E-01.
  Largest element of DIIS residual   : -0.68511040E-01.
   The total correlation energy is -0.633203047702 a.u.
  Convergence information after     3 iterations: 
  Largest element of residual vector : -0.92549553E-01.
  Largest element of DIIS residual   : -0.55649702E-01.
   The total correlation energy is -0.630833625156 a.u.
  Convergence information after     4 iterations: 
  Largest element of residual vector : -0.73086077E-01.
  Largest element of DIIS residual   : -0.24287497E-01.
   The total correlation energy is -0.629458608895 a.u.
  Convergence information after     5 iterations: 
  Largest element of residual vector : -0.20334648E-01.
  Largest element of DIIS residual   : -0.35027332E-02.
   The total correlation energy is -0.631300820665 a.u.
  Convergence information after     6 iterations: 
  Largest element of residual vector : -0.47343816E-02.
  Largest element of DIIS residual   :  0.26291168E-02.
   The total correlation energy is -0.631424560090 a.u.
  Convergence information after     7 iterations: 
  Largest element of residual vector :  0.24384442E-02.
  Largest element of DIIS residual   :  0.19430339E-02.
   The total correlation energy is -0.631545575147 a.u.
  Convergence information after     8 iterations: 
  Largest element of residual vector :  0.12860007E-02.
  Largest element of DIIS residual   :  0.66496738E-03.
   The total correlation energy is -0.631503048829 a.u.
  Convergence information after     9 iterations: 
  Largest element of residual vector :  0.85092299E-03.
  Largest element of DIIS residual   :  0.45692444E-03.
   The total correlation energy is -0.631545539727 a.u.
  Convergence information after    10 iterations: 
  Largest element of residual vector : -0.57859537E-03.
  Largest element of DIIS residual   : -0.58622020E-03.
   The total correlation energy is -0.631559059776 a.u.
  Convergence information after    11 iterations: 
  Largest element of residual vector : -0.77648982E-03.
  Largest element of DIIS residual   : -0.65333074E-03.
   The total correlation energy is -0.631569342195 a.u.
  Convergence information after    12 iterations: 
  Largest element of residual vector : -0.86776306E-03.
  Largest element of DIIS residual   : -0.58766573E-03.
   The total correlation energy is -0.631554219675 a.u.
  Convergence information after    13 iterations: 
  Largest element of residual vector : -0.77176369E-03.
  Largest element of DIIS residual   : -0.48050907E-03.
   The total correlation energy is -0.631531424503 a.u.
  Convergence information after    14 iterations: 
  Largest element of residual vector : -0.61990307E-03.
  Largest element of DIIS residual   : -0.36748663E-03.
   The total correlation energy is -0.631522274307 a.u.
  Convergence information after    15 iterations: 
  Largest element of residual vector : -0.46482396E-03.
  Largest element of DIIS residual   : -0.29923502E-03.
   The total correlation energy is -0.631519494996 a.u.
  Convergence information after    16 iterations: 
  Largest element of residual vector : -0.38368714E-03.
  Largest element of DIIS residual   : -0.28120963E-03.
   The total correlation energy is -0.631520059867 a.u.
  Convergence information after    17 iterations: 
  Largest element of residual vector : -0.28742507E-03.
  Largest element of DIIS residual   : -0.24823429E-03.
   The total correlation energy is -0.631527957764 a.u.
  Convergence information after    18 iterations: 
  Largest element of residual vector : -0.28341471E-03.
  Largest element of DIIS residual   : -0.20575814E-03.
   The total correlation energy is -0.631535077069 a.u.
  Convergence information after    19 iterations: 
  Largest element of residual vector : -0.28696213E-03.
  Largest element of DIIS residual   : -0.23964452E-03.
   The total correlation energy is -0.631540437595 a.u.
  Convergence information after    20 iterations: 
  Largest element of residual vector : -0.33334471E-03.
  Largest element of DIIS residual   : -0.21431068E-03.
   The total correlation energy is -0.631537564985 a.u.
  Convergence information after    21 iterations: 
  Largest element of residual vector : -0.29757383E-03.
  Largest element of DIIS residual   : -0.19094644E-03.
   The total correlation energy is -0.631536212198 a.u.
  Convergence information after    22 iterations: 
  Largest element of residual vector : -0.26738384E-03.
  Largest element of DIIS residual   : -0.15440440E-03.
   The total correlation energy is -0.631529547913 a.u.
  Convergence information after    23 iterations: 
  Largest element of residual vector : -0.16980327E-03.
  Largest element of DIIS residual   :  0.65620604E-04.
   The total correlation energy is -0.631526504952 a.u.
  Convergence information after    24 iterations: 
  Largest element of residual vector : -0.10446398E-03.
  Largest element of DIIS residual   : -0.93677996E-04.
   The total correlation energy is -0.631523285711 a.u.
  Convergence information after    25 iterations: 
  Largest element of residual vector : -0.78012519E-04.
  Largest element of DIIS residual   : -0.56620683E-04.
   The total correlation energy is -0.631524470486 a.u.
  Convergence information after    26 iterations: 
  Largest element of residual vector : -0.77476231E-04.
  Largest element of DIIS residual   : -0.59144505E-04.
   The total correlation energy is -0.631524702743 a.u.
  Convergence information after    27 iterations: 
  Largest element of residual vector : -0.81607072E-04.
  Largest element of DIIS residual   : -0.68601862E-04.
   The total correlation energy is -0.631525187651 a.u.
  Convergence information after    28 iterations: 
  Largest element of residual vector : -0.94019062E-04.
  Largest element of DIIS residual   : -0.47631740E-04.
   The total correlation energy is -0.631523791388 a.u.
  Convergence information after    29 iterations: 
  Largest element of residual vector : -0.65534184E-04.
  Largest element of DIIS residual   :  0.33445601E-04.
   The total correlation energy is -0.631521468927 a.u.
  Convergence information after    30 iterations: 
  Largest element of residual vector :  0.30351145E-04.
  Largest element of DIIS residual   : -0.20207445E-04.
   The total correlation energy is -0.631519164773 a.u.
  Convergence information after    31 iterations: 
  Largest element of residual vector : -0.13048393E-04.
  Largest element of DIIS residual   :  0.11977932E-04.
   The total correlation energy is -0.631519190476 a.u.
  Convergence information after    32 iterations: 
  Largest element of residual vector :  0.11063207E-04.
  Largest element of DIIS residual   :  0.44016761E-05.
   The total correlation energy is -0.631518327531 a.u.
  Convergence information after    33 iterations: 
  Largest element of residual vector : -0.56602730E-05.
  Largest element of DIIS residual   : -0.30813307E-05.
   The total correlation energy is -0.631518136668 a.u.
  Convergence information after    34 iterations: 
  Largest element of residual vector : -0.42241462E-05.
  Largest element of DIIS residual   : -0.38097228E-05.
   The total correlation energy is -0.631518203363 a.u.
  Convergence information after    35 iterations: 
  Largest element of residual vector : -0.51653183E-05.
  Largest element of DIIS residual   : -0.40378850E-05.
   The total correlation energy is -0.631518240948 a.u.
  Convergence information after    36 iterations: 
  Largest element of residual vector : -0.54798060E-05.
  Largest element of DIIS residual   : -0.40526919E-05.
   The total correlation energy is -0.631518256094 a.u.
  Convergence information after    37 iterations: 
  Largest element of residual vector : -0.54536375E-05.
  Largest element of DIIS residual   : -0.35943999E-05.
   The total correlation energy is -0.631518193661 a.u.
  Convergence information after    38 iterations: 
  Largest element of residual vector : -0.47543977E-05.
  Largest element of DIIS residual   : -0.28553657E-05.
   The total correlation energy is -0.631518075891 a.u.
  Convergence information after    39 iterations: 
  Largest element of residual vector : -0.37500646E-05.
  Largest element of DIIS residual   : -0.23168400E-05.
   The total correlation energy is -0.631518077638 a.u.
  Convergence information after    40 iterations: 
  Largest element of residual vector : -0.29257329E-05.
  Largest element of DIIS residual   : -0.21735158E-05.
   The total correlation energy is -0.631518189144 a.u.
  Convergence information after    41 iterations: 
  Largest element of residual vector : -0.27727770E-05.
  Largest element of DIIS residual   : -0.22867433E-05.
   The total correlation energy is -0.631518212393 a.u.
  Convergence information after    42 iterations: 
  Largest element of residual vector : -0.29404598E-05.
  Largest element of DIIS residual   : -0.22702595E-05.
   The total correlation energy is -0.631518210914 a.u.
  Convergence information after    43 iterations: 
  Largest element of residual vector : -0.29145464E-05.
  Largest element of DIIS residual   : -0.24817655E-05.
   The total correlation energy is -0.631518255892 a.u.
  Convergence information after    44 iterations: 
  Largest element of residual vector : -0.32354517E-05.
  Largest element of DIIS residual   : -0.22562054E-05.
   The total correlation energy is -0.631518226988 a.u.
  Convergence information after    45 iterations: 
  Largest element of residual vector : -0.29186479E-05.
  Largest element of DIIS residual   : -0.11373072E-05.
   The total correlation energy is -0.631518185798 a.u.
  Convergence information after    46 iterations: 
  Largest element of residual vector : -0.13634666E-05.
  Largest element of DIIS residual   :  0.87579223E-06.
   The total correlation energy is -0.631518152029 a.u.
  Convergence information after    47 iterations: 
  Largest element of residual vector : -0.58030910E-06.
  Largest element of DIIS residual   :  0.34411174E-06.
   The total correlation energy is -0.631518149677 a.u.
  Convergence information after    48 iterations: 
  Largest element of residual vector : -0.32130536E-06.
  Largest element of DIIS residual   : -0.30766422E-06.
   The total correlation energy is -0.631518127463 a.u.
  Convergence information after    49 iterations: 
  Largest element of residual vector : -0.19334291E-06.
  Largest element of DIIS residual   :  0.16536384E-06.
   The total correlation energy is -0.631518110621 a.u.
  Convergence information after    50 iterations: 
  Largest element of residual vector : -0.18768768E-06.
  Largest element of DIIS residual   : -0.16863012E-06.
   The total correlation energy is -0.631518105724 a.u.
  Convergence information after    51 iterations: 
  Largest element of residual vector : -0.24270193E-06.
  Largest element of DIIS residual   : -0.17314576E-06.
   The total correlation energy is -0.631518106071 a.u.
  Convergence information after    52 iterations: 
  Largest element of residual vector : -0.24857569E-06.
  Largest element of DIIS residual   : -0.23144275E-06.
   The total correlation energy is -0.631518114918 a.u.
  Convergence information after    53 iterations: 
  Largest element of residual vector : -0.31590573E-06.
  Largest element of DIIS residual   : -0.20901703E-06.
   The total correlation energy is -0.631518112366 a.u.
  Convergence information after    54 iterations: 
  Largest element of residual vector : -0.28559283E-06.
  Largest element of DIIS residual   : -0.67365609E-07.
   The total correlation energy is -0.631518093370 a.u.
  Convergence information after    55 iterations: 
  Largest element of residual vector : -0.93944952E-07.
  Largest element of DIIS residual   : -0.35547478E-07.
   The total correlation energy is -0.631518089676 a.u.
  Convergence information after    56 iterations: 
  Largest element of residual vector : -0.41814646E-07.
  Largest element of DIIS residual   : -0.17835574E-07.
   The total correlation energy is -0.631518089713 a.u.
  Convergence information after    57 iterations: 
  Largest element of residual vector : -0.25727740E-07.
  Largest element of DIIS residual   :  0.16090165E-07.
   The total correlation energy is -0.631518090017 a.u.
  Convergence information after    58 iterations: 
  Largest element of residual vector :  0.15187520E-07.
  Largest element of DIIS residual   :  0.12750404E-07.
   The total correlation energy is -0.631518090695 a.u.
  Convergence information after    59 iterations: 
  Largest element of residual vector :  0.11888608E-07.
  Largest element of DIIS residual   : -0.10017522E-07.
   The total correlation energy is -0.631518090889 a.u.
  Convergence information after    60 iterations: 
  Largest element of residual vector : -0.13135361E-07.
  Largest element of DIIS residual   : -0.13762900E-07.
   The total correlation energy is -0.631518091355 a.u.
  Convergence information after    61 iterations: 
  Largest element of residual vector : -0.18530655E-07.
  Largest element of DIIS residual   : -0.12612490E-07.
   The total correlation energy is -0.631518091256 a.u.
  Convergence information after    62 iterations: 
  Largest element of residual vector : -0.17119305E-07.
  Largest element of DIIS residual   :  0.46155023E-08.
   The total correlation energy is -0.631518090469 a.u.
  Convergence information after    63 iterations: 
  Largest element of residual vector :  0.41045880E-08.
  Largest element of DIIS residual   :  0.27294487E-08.
   The total correlation energy is -0.631518090236 a.u.
  Convergence information after    64 iterations: 
  Largest element of residual vector :  0.23777113E-08.
  Largest element of DIIS residual   :  0.13926558E-08.
   The total correlation energy is -0.631518090260 a.u.
  Convergence information after    65 iterations: 
  Largest element of residual vector :  0.13773104E-08.
  Largest element of DIIS residual   : -0.84947078E-09.
   The total correlation energy is -0.631518090237 a.u.
  Convergence information after    66 iterations: 
  Largest element of residual vector : -0.96988299E-09.
  Largest element of DIIS residual   :  0.42459042E-09.
   The total correlation energy is -0.631518090236 a.u.
  Convergence information after    67 iterations: 
  Largest element of residual vector : -0.71406734E-09.
  Largest element of DIIS residual   : -0.47858503E-09.
   The total correlation energy is -0.631518090217 a.u.
  Convergence information after    68 iterations: 
  Largest element of residual vector : -0.35302561E-09.
  Largest element of DIIS residual   : -0.33563517E-09.
   The total correlation energy is -0.631518090223 a.u.
  Convergence information after    69 iterations: 
  Largest element of residual vector : -0.45954157E-09.
  Largest element of DIIS residual   : -0.29129558E-09.
   The total correlation energy is -0.631518090221 a.u.
  Convergence information after    70 iterations: 
  Largest element of residual vector : -0.40058382E-09.
  Largest element of DIIS residual   : -0.15889358E-09.
   The total correlation energy is -0.631518090209 a.u.
  Convergence information after    71 iterations: 
  Largest element of residual vector : -0.18888081E-09.
  Largest element of DIIS residual   :  0.99334441E-10.
   The total correlation energy is -0.631518090194 a.u.
  Convergence information after    72 iterations: 
  Largest element of residual vector :  0.92718770E-10.
  Largest element of DIIS residual   :  0.88751671E-10.
  Amplitude equations converged in    72iterations.
   The total correlation energy is -0.631518090187 a.u.
   The CC iterations have converged.

   Largest T1 amplitudes for spin case AA:
   i       a                 i       a                 i       a    
[...]
 term  0.684939971616075     
 final tnorm  0.768794023705105     
  norm contr. I: |<0|L dT/dx|0>|^2   0.000000000000000E+000
  norm contr. II: <0|[nabla(1+L)e-T][nabla e^T]|0>  0.684939971616075     
  total norm contribution  0.684939971616075     
 oo -9.736819191115416E-003
 vv  -2.19677119085698     
 vo -4.976924483565513E-002
  Correlated perturbed 1-el contribution to DBOC  -2.25627725488375       cm**-1
  SUM_I |dc_I/dx|^2 contribution to DBOC   1.17945451456652       cm**-1
 
 
  The total diagonal Born-Oppenheimer correction (DBOC) is:      0.0089181442 a.u.
  The total diagonal Born-Oppenheimer correction (DBOC) is:       1957.306415 cm-1
 
 Total CC energy including DBOC  -535.176295033551     
 First-order density matrix is being calculated  (Symmetry block 2, perturbation   3)
 Calculation of the contributions of <pq||rs> to dI(i,j)/dx required   1.2 seconds.
 Calculation of the contributions of <pq||rs> to dI(a,b)/dx required   5.9 seconds.
 Calculation of the contributions of <pq||rs> to dI(i,a)/dx required   3.2 seconds.
 First-order Z-vector equations are solved for 1 perturbation.
 Convergence reached after  25 iterations.
        U*G(pq,rs) contribution is being calculated
             (Symmetry block 2, perturbation   3)

 CCSD contribution to force constants 

        0.0000000000        0.0000000000        0.0000000000
        0.0000000000        0.0000000000        0.0000000000
        0.0000000000        0.0000000000        0.0000000000
        0.0000000000        0.0000000000        0.0000000000
        0.0000000000        0.0000000000        0.0000000000
        0.0000000000        0.0000000000        0.0000000000
        0.0000000000        0.0000000000        0.0000000000
        0.0000000000        0.0000000000        0.0000000000
        0.0000000000        0.0000000000        0.0000000000
        0.0000000000        0.0000000000        0.0000000000
        0.0000000000        0.0000000000        0.0000000000
        0.0000000000        0.0000000000        0.0000000000
        0.0000000000        0.0000000000        0.0000000000
        0.0000000000        0.0000000000        0.0000000000
        0.0000000000        0.0000000000        0.0000000000
        0.0000000000        0.0000000000        0.0000000000
        0.0000000000        0.0000000000        0.0000000000
        0.0000000000        0.0000000000        0.0000000000
        0.0000000000        0.0000000000        0.0000000000
        0.0000000000        0.0000000000        0.0000000000
        0.0000000000        0.0000000000        0.0000000000
        0.0000000000        0.0000000000        0.0000000000
        0.0000000000        0.0000000000        0.0000000000
        0.0000000000        0.0000000000        0.0000000000
        0.0000000000        0.0000000000        0.0000000000
        0.0000000000        0.0000000000        0.0000000000
        3.9495724806        0.6041994010       -4.5537718816

 CCSD contribution to dipole derivatives 

        0.0000000000        0.0000000000        0.0000000000
        0.0000000000        0.0000000000        0.0000000000
        0.0000000000        0.0000000000        0.0000000000
        0.0000000000        0.0000000000        0.0000000000
        0.0000000000        0.0000000000        0.0000000000
        0.0000000000        0.0000000000        0.0000000000
        0.0000000000        0.0000000000        0.0000000000
        0.0000000000        0.0000000000        0.0000000000
        0.0000000000        0.0000000000        0.0646683633
 @CHECKOUT-I, Total execution time (CPU/WALL):      803.57/     115.99 seconds.
--executable xsdcc finished with status     0 in      116.08 seconds (walltime).
 --invoking executable--
/home/asmola/.local/bin/xanti
 @GETMEM-I,  Allocated    3814 MB of main memory.
 CCSD MO derivative gammas will be sorted to Mulliken order.
 @CHECKOUT-I, Total execution time (CPU/WALL):        3.06/       1.73 seconds.
--executable xanti finished with status     0 in        1.82 seconds (walltime).
 --invoking executable--
/home/asmola/.local/bin/xbcktrn
 @GETMEM-I,  Allocated    3814 MB of main memory.
 CCSD MO derivative gammas will be transformed to the AO basis.
 @CHECKOUT-I, Total execution time (CPU/WALL):        4.88/       0.65 seconds.
--executable xbcktrn finished with status     0 in        0.70 seconds (walltime).
 --invoking executable--
/home/asmola/.local/bin/xvdint
 @GETMEM-I,  Allocated    3814 MB of main memory.
 One- and two-electron integral derivatives are calculated
 for RHF-CC/MBPT hessians and dipole derivatives.
 Spherical gaussians are used.
  magnet F F
 Evaluation of 2el integral derivatives

                      Two-electron integral gradient
                      ------------------------------

                         O #1 x     0.0000000000
                         O #1 y     0.0000000000
                         H #2 x     0.0000000000
                         H #2 y     0.0000000000
                         CL#3 x     0.0000000000
                         CL#3 y     0.0000000000


 O #1       0.0000000000            0.0000000000           -0.1365050307
 H #2       0.0000000000            0.0000000000            0.0056540107
 CL#3       0.0000000000            0.0000000000            0.1308510200


 Evaluation of 2e integral derivatives required   51.56 seconds.
  contribution to Hessian
        0.0000000000        0.0000000000        0.0000000000
        0.0000000000        0.0000000000        0.0000000000
       -0.1365050307        0.0056540107        0.1308510200
 @CHECKOUT-I, Total execution time (CPU/WALL):       51.66/       8.16 seconds.
--executable xvdint finished with status     0 in        8.22 seconds (walltime).
 --invoking executable--
/home/asmola/.local/bin/xanti
 @GETMEM-I,  Allocated    3814 MB of main memory.
 CCSD MO gammas will be sorted to Mulliken order.
 @CHECKOUT-I, Total execution time (CPU/WALL):        3.60/       3.02 seconds.
--executable xanti finished with status     0 in        3.08 seconds (walltime).
 --invoking executable--
/home/asmola/.local/bin/xbcktrn
 @GETMEM-I,  Allocated    3814 MB of main memory.
 CCSD MO gammas will be transformed to the AO basis.
 @CHECKOUT-I, Total execution time (CPU/WALL):        8.18/       1.11 seconds.
--executable xbcktrn finished with status     0 in        1.13 seconds (walltime).
 --invoking executable--
/home/asmola/.local/bin/xvdint
 @GETMEM-I,  Allocated    3814 MB of main memory.
 One- and two-electron integral derivatives are calculated
 for RHF-CC/MBPT hessians and dipole derivatives.
 Spherical gaussians are used.
  magnet F F

                     Kinetic energy integral gradient
                     --------------------------------

                         O #1 x    -0.4393803905
                         O #1 y    -0.5333554456
                         H #2 x     0.3647095159
                         H #2 y     0.5599127579
                         CL#3 x     0.0746708746
                         CL#3 y    -0.0265573123


 O #1      -0.4393803905           -0.5333554456            0.0000000000
 H #2       0.3647095159            0.5599127579            0.0000000000
 CL#3       0.0746708746           -0.0265573123            0.0000000000



                   Nuclear attraction integral gradient
                   ------------------------------------

                         O #1 x   -18.5259024667
                         O #1 y     5.8497571548
                         H #2 x    -5.0579920386
                         H #2 y    -5.9698085949
                         CL#3 x    23.5838945054
                         CL#3 y     0.1200514401


 O #1     -18.5259024667            5.8497571548            0.0000000000
 H #2      -5.0579920386           -5.9698085949            0.0000000000
 CL#3      23.5838945054            0.1200514401            0.0000000000



                      Reorthonormalization gradient
                      -----------------------------

                         O #1 x     0.0000000000
                         O #1 y     0.0000000000
                         H #2 x     0.0000000000
                         H #2 y     0.0000000000
                         CL#3 x     0.0000000000
                         CL#3 y     0.0000000000


 O #1       0.0000000000            0.0000000000            0.0000000000
 H #2       0.0000000000            0.0000000000            0.0000000000
 CL#3       0.0000000000            0.0000000000            0.0000000000



                     Kinetic energy integral Hessian
                     -------------------------------


           Symmetry 1

           O #1 x      O #1 y      H #2 x      H #2 y      CL#3 x      CL#3 y

 O #1 x   -0.261070
 O #1 y    0.540845    0.245122
 H #2 x    0.401670   -0.539044   -0.391567
 H #2 y   -0.539044   -0.244952    0.551888    0.249112
 CL#3 x   -0.140600   -0.001801   -0.010102   -0.012845    0.150703
 CL#3 y   -0.001801   -0.000170   -0.012845   -0.004161    0.014646    0.004331


           Symmetry 2

           O #1 z      H #2 z      CL#3 z

 O #1 z   -0.698920
 H #2 z    0.624040   -0.628776
 CL#3 z    0.074880    0.004735   -0.079616




           O #1 x      O #1 y      O #1 z      H #2 x      H #2 y      H #2 z

 O #1 x   -0.261070
 O #1 y    0.540845    0.245122
 O #1 z    0.000000    0.000000   -0.698920

 H #2 x    0.401670   -0.539044    0.000000   -0.391567
 H #2 y   -0.539044   -0.244952    0.000000    0.551888    0.249112
 H #2 z    0.000000    0.000000    0.624040    0.000000    0.000000   -0.628776

 CL#3 x   -0.140600   -0.001801    0.000000   -0.010102   -0.012845    0.000000
 CL#3 y   -0.001801   -0.000170    0.000000   -0.012845   -0.004161    0.000000
 CL#3 z    0.000000    0.000000    0.074880    0.000000    0.000000    0.004735


           CL#3 x      CL#3 y      CL#3 z

 CL#3 x    0.150703
 CL#3 y    0.014646    0.004331
 CL#3 z    0.000000    0.000000   -0.079616




                   Nuclear attraction integral Hessian
                   -----------------------------------


           Symmetry 1

           O #1 x      O #1 y      H #2 x      H #2 y      CL#3 x      CL#3 y

 O #1 x  -13.387475
 O #1 y   -2.439851    5.601565
 H #2 x   -4.982785    3.646610    4.085283
 H #2 y    3.653280   -0.097004   -4.552399    0.088516
 CL#3 x   18.370260   -1.206760    0.897501    0.899119  -19.267761
 CL#3 y   -1.213429   -5.504560    0.905789    0.008488    0.307640    5.496072


           Symmetry 2

           O #1 z      H #2 z      CL#3 z

 O #1 z   13.922454
 H #2 z   -6.256041    6.836861
 CL#3 z   -7.666413   -0.580821    8.247234




           O #1 x      O #1 y      O #1 z      H #2 x      H #2 y      H #2 z

 O #1 x  -13.387475
 O #1 y   -2.439851    5.601565
 O #1 z    0.000000    0.000000   13.922454

 H #2 x   -4.982785    3.646610    0.000000    4.085283
 H #2 y    3.653280   -0.097004    0.000000   -4.552399    0.088516
 H #2 z    0.000000    0.000000   -6.256041    0.000000    0.000000    6.836861

 CL#3 x   18.370260   -1.206760    0.000000    0.897501    0.899119    0.000000
 CL#3 y   -1.213429   -5.504560    0.000000    0.905789    0.008488    0.000000
 CL#3 z    0.000000    0.000000   -7.666413    0.000000    0.000000   -0.580821


           CL#3 x      CL#3 y      CL#3 z

 CL#3 x  -19.267761
 CL#3 y    0.307640    5.496072
 CL#3 z    0.000000    0.000000    8.247234




                Highest order reorthonormalization Hessian
                ------------------------------------------


           Symmetry 1

           O #1 x      O #1 y      H #2 x      H #2 y      CL#3 x      CL#3 y

 O #1 x    0.000000
 O #1 y    0.000000    0.000000
 H #2 x    0.000000    0.000000    0.000000
 H #2 y    0.000000    0.000000    0.000000    0.000000
 CL#3 x    0.000000    0.000000    0.000000    0.000000    0.000000
 CL#3 y    0.000000    0.000000    0.000000    0.000000    0.000000    0.000000


           Symmetry 2

           O #1 z      H #2 z      CL#3 z

 O #1 z    0.000000
 H #2 z    0.000000    0.000000
 CL#3 z    0.000000    0.000000    0.000000




           O #1 x      O #1 y      O #1 z      H #2 x      H #2 y      H #2 z


           CL#3 x      CL#3 y      CL#3 z




                Electronic contributions to dipole moment
                -----------------------------------------

                               au             Debye

                    x      1.46627191      3.72689210
                    y      0.29039480      0.73811009

  Conversion factor used: 1 a.u. =   2.54174691 Debye 



   Electronic contributions to static part of dipole moment derivatives
   --------------------------------------------------------------------


                     Total dipole moment derivatives
                     -------------------------------


           Symmetry 1
                              Ex             Ey

               O #1 x    -8.50126419    -0.07728725
               O #1 y    -0.29183561    -8.14992000
               H #2 x    -0.39866935     0.13524383
               H #2 y     0.39237880    -0.47594749
               CL#3 x   -17.10006646    -0.05795658
               CL#3 y    -0.10054319   -17.37413251

           Symmetry 2
                              Ez

               O #1 z    -7.88277131
               H #2 z    -0.81003767
               CL#3 z   -17.30719102



                       Ex          Ey          Ez

      O #1    x   -8.501264   -0.077287    0.000000
      O #1    y   -0.291836   -8.149920    0.000000
      O #1    z    0.000000    0.000000   -7.882771

      H #2    x   -0.398669    0.135244    0.000000
      H #2    y    0.392379   -0.475947    0.000000
      H #2    z    0.000000    0.000000   -0.810038

      CL#3    x  -17.100066   -0.057957    0.000000
      CL#3    y   -0.100543  -17.374133    0.000000
      CL#3    z    0.000000    0.000000  -17.307191

 Evaluation of 1e integral derivatives required    1.00 seconds.
 Evaluation of 2el integral derivatives

                      Two-electron integral gradient
                      ------------------------------

                         O #1 x     6.8963341497
                         O #1 y    -2.4127663791
                         H #2 x     2.5690979914
                         H #2 y     2.7041495415
                         CL#3 x    -9.4654321411
                         CL#3 y    -0.2913831623


 O #1       6.8963341497           -2.4127663791            0.0000000000
 H #2       2.5690979914            2.7041495415            0.0000000000
 CL#3      -9.4654321411           -0.2913831623            0.0000000000


 Evaluation of 2e integral derivatives required  141.98 seconds.

                            Molecular gradient
                            ------------------

                         O #1 x     0.2490682810
                         O #1 y     0.1946357329
                         H #2 x    -0.1357592929
                         H #2 y    -0.2240895467
                         CL#3 x    -0.1133089881
                         CL#3 y     0.0294538137


 O #1       0.2490682810            0.1946357329            0.0000000000
 H #2      -0.1357592929           -0.2240895467            0.0000000000
 CL#3      -0.1133089881            0.0294538137            0.0000000000


  Molecular gradient norm 0.427E+00

                            Molecular hessian
                            -----------------


           Symmetry 1

           O #1 x      O #1 y      H #2 x      H #2 y      CL#3 x      CL#3 y

 O #1 x   -0.230819
 O #1 y    5.389995    8.390382
 H #2 x    0.179397   -4.436937    0.121078
 H #2 y   -5.318636   -8.054312    5.695937    7.664906
 CL#3 x    0.051422    0.568057   -0.346297   -0.356118    0.294874
 CL#3 y   -0.071358   -0.336070   -0.015526   -0.004164    0.086884    0.340234


           Symmetry 2

           O #1 z      H #2 z      CL#3 z

 O #1 z    3.822632
 H #2 z   -7.642375    6.462300
 CL#3 z    3.819743    0.601949   -4.421692




           O #1 x      O #1 y      O #1 z      H #2 x      H #2 y      H #2 z

 O #1 x   -0.230819
 O #1 y    5.389995    8.390382
 O #1 z    0.000000    0.000000    3.822632

 H #2 x    0.179397   -4.436937    0.000000    0.121078
 H #2 y   -5.318636   -8.054312    0.000000    5.695937    7.664906
 H #2 z    0.000000    0.000000   -7.642375    0.000000    0.000000    6.462300

 CL#3 x    0.051422    0.568057    0.000000   -0.346297   -0.356118    0.000000
 CL#3 y   -0.071358   -0.336070    0.000000   -0.015526   -0.004164    0.000000
 CL#3 z    0.000000    0.000000    3.819743    0.000000    0.000000    0.601949


           CL#3 x      CL#3 y      CL#3 z

 CL#3 x    0.294874
 CL#3 y    0.086884    0.340234
 CL#3 z    0.000000    0.000000   -4.421692




                           Total dipole moment
                           -------------------

                               au             Debye

                    x     -0.51648165     -1.31276565
                    y     -0.44443796     -1.12964882

  Conversion factor used: 1 a.u. =   2.54174691 Debye 



                     Total dipole moment derivatives
                     -------------------------------


           Symmetry 1
                              Ex             Ey

               O #1 x     0.36730134     0.51885295
               O #1 y     0.35608049     0.12912855
               H #2 x    -0.01529321    -0.06094944
               H #2 y    -0.40882271    -0.01874336
               CL#3 x    -0.35200755    -0.45790330
               CL#3 y     0.05274257    -0.11038493

           Symmetry 2
                              Ez

               O #1 z    -0.19575664
               H #2 z     0.28196367
               CL#3 z    -0.08620712



                       Ex          Ey          Ez

      O #1    x    0.367301    0.518853    0.000000
      O #1    y    0.356080    0.129129    0.000000
      O #1    z    0.000000    0.000000   -0.195757

      H #2    x   -0.015293   -0.060949    0.000000
      H #2    y   -0.408823   -0.018743    0.000000
      H #2    z    0.000000    0.000000    0.281964

      CL#3    x   -0.352008   -0.457903    0.000000
      CL#3    y    0.052743   -0.110385    0.000000
      CL#3    z    0.000000    0.000000   -0.086207

  Molecular gradient does not satisfy rotational invariance condition.
   rotational invariance in yz-plane :        0.0000E+00
   rotational invariance in xz-plane :        0.0000E+00
   rotational invariance in xy-plane :        -.4674E-01
 @CHECKOUT-I, Total execution time (CPU/WALL):      142.99/      19.43 seconds.
--executable xvdint finished with status     0 in       19.48 seconds (walltime).
 --invoking executable--
/home/asmola/.local/bin/xjoda
  @GTFLGS-I, Hessian will be transformed to curvilinear coordinates.
  @GTFLGS-I, Hessian will be transformed to curvilinear coordinates.
  igrd and ihes are                      0                     1
  gradient from JOBARC 
   0.249068280976809   0.194635732948253   0.000000000000000
  -0.135759292909407  -0.224089546696468   0.000000000000000
  -0.113308988067400   0.029453813748224   0.000000000000000
 
  @PROJFCM-I, Projecting force constant matrix onto totally symmetric subspace.
  Largest difference between matrix elements of symmetrized
  and unsymmetrized FCM :     0.0000000000E+00.
 
  Summary of diagonal Born-Oppenheimer correction at the correlated level
  The total diagonal Born-Oppenheimer correction (DBOC) is:      0.0089181442 a.u.
  The total diagonal Born-Oppenheimer correction (DBOC) is:       1957.306415 cm-1
  The total diagonal Born-Oppenheimer correction (DBOC) is:            23.415 kJ/mole
  hellooooooo 
  readis is  F
 
 @CHECKOUT-I, Total execution time (CPU/WALL):        0.01/       0.04 seconds.
--executable xjoda finished with status     0 in        0.07 seconds (walltime).
  The final electronic energy is      -535.176295033550787 a.u. 
  This computation required                         1538.58 seconds (walltime).
