 --invoking executable--
/home/asmola/.local/bin/xjoda


   *************************************************************************
         <<<     CCCCCC     CCCCCC   |||     CCCCCC     CCCCCC   >>>
       <<<      CCC        CCC       |||    CCC        CCC         >>>
      <<<      CCC        CCC        |||   CCC        CCC            >>>
    <<<        CCC        CCC        |||   CCC        CCC              >>>
      <<<      CCC        CCC        |||   CCC        CCC            >>>
       <<<      CCC        CCC       |||    CCC        CCC         >>>
         <<<     CCCCCC     CCCCCC   |||     CCCCCC     CCCCCC   >>>
   *************************************************************************

     ****************************************************************
     * CFOUR Coupled-Cluster techniques for Computational Chemistry *
     ****************************************************************
 

   Department of Chemistry                Institut fuer Physikalische Chemie
   University of Florida                  Universitaet Mainz
   Gainesville, FL 32611, USA             D-55099 Mainz, Germany

   Department of Chemistry                Fakultaet fuer Chemie und Biowiss.
   Johns Hopkins University               Karlsruher Institut fuer Technologie
   Baltimore, MD 21218, USA               D-76131 Karlsruhe, Germany

   Department of Chemistry                Department of Physical Chemistry
   Southern Methodist University          Eotvos Lorand University
   Dallas, TX 75275, USA                  H-1053 Budapest, Hungary

 
                       Version 2.1
 
                     vincent.theory.phys.ucl.ac.uk                     
                     Tue 28 Jan 14:32:36 GMT 2025                      
                     integer*8 version is running
 
********************************************************************************
*                          Input from ZMAT file                                *
********************************************************************************
Hypochlorous acid DBOC calculation                                              
O                                                                               
H 1 ROH                                                                         
CL 1 ROCL 2 A                                                                   
                                                                                
ROH=0.96000000                                                                  
ROCL=1.68300000                                                                 
A=116.00000                                                                     
                                                                                
                                                                                
*CFOUR(CALC=CCSD,BASIS=AUG-PVTZ,SCF_CONV=10                                     
CC_CONV=10,DBOC=ON,MEMORY=500000000)                                            
********************************************************************************
  @GTFLGS-I, Hessian will be transformed to curvilinear coordinates.
    -------------------------------------------------------------------
                    CFOUR Control Parameters 
    -------------------------------------------------------------------
        External           Internal           Value            Units
          Name               Name
    -------------------------------------------------------------------
       ABCDTYPE             IABCDT         STANDARD    [  0]    ***   
       ANHARMONIC           IANHAR         OFF         [  0]    ***   
       ANH_ALGORIT          IANALG         STANDARD    [  0]    ***   
       ANH_DERIVAT          IANDER         SECOND      [  1]    ***   
       ANH_MODE             ANHMOD         VIBRATION   [  0]    ***   
       ANH_STEPSIZ          ICUBST             50000          x 10-6  
       ANH_SYMMETR          IANHSM         ABELIAN     [  0]    ***   
       AO_LADDERS           IAOLAD         SINGLEPASS  [  1]    ***   
       AV_SCF               IAVSCF         OFF         [  0]    ***   
       BASIS                IBASIS         AUG-PVTZ    [ 34]    ***   
       BOTHVECTORS          BOTHVC         OFF         [  0]    ***   
       BOX_POTENT           IPIAB          OFF         [  0]    ***   
       BREIT                IBREIT         OFF         [  0]    ***   
       BRUCK_CONV           IBRTOL          10D-  4             ***   
       BRUECKNER            IBRKNR         OFF         [  0]    ***   
       BUFFERSIZE           IBUFFS              4096            ***   
       CACHE_RECS           ICHREC             10               ***   
       CALCLEVEL            ICLLVL         CCSD        [ 10]    ***   
       CCORBOPT             ICCORB         OFF         [  0]  x 0.01  
       CC_CONV              ICCCNV          10D- 10             ***   
       CC_EXPORDER          ICCEOR              5               ***   
       CC_EXTRAPOL          ICCEXT         DIIS        [  1]    ***   
       CC_GUESS             ICCGES         MP2         [  0]    ***   
       CC_MAXCYC            ICCCYC            100              cycles 
       CC_PROGRAM           ICCPRO         VCC         [  0]    ***   
       CHARGE               ICHRGE              0               ***   
       CHOLESKY             ICHOLE         OFF         [  0]    ***   
       CIS_CONV             ICISTL              5               ***   
       COMM_SIZE            IPSIZE            ***               ***   
       CONSTANT             ICONST         OLD         [  1]    ***   
       CONTINUUM            ICONTU         NONE        [  0]    ***   
       CONTRACTION          ICNTYP         GENERAL     [  1]    ***   
       COORDINATES          ICOORD         INTERNAL    [  0]    ***   
       CPHF_CONVER          ICPHFT          10D- 16             ***   
       CPHF_MAXCYC          ICPHFC             64              cycles 
       CUBIC                ICUBIC         OFF         [  0]    ***   
       CURVILINEAR          ICURVY         ON          [  1]    ***   
       DBOC                 IDBOC          ON          [  1]    ***   
       DCT                  IDCT           OFF         [  0]    ***   
       DERIV_LEV            IDRLVL         SECOND      [  2]    ***   
       DEVMEM_SIZE          IDVMEM          50000000           MByte  
       DIAG_MRCC            IEOMST          10D-  0             ***   
       DIFF_TYPE            IDIFTY         RELAXED     [  0]    ***   
       DIRECT               IDIRCT         OFF         [  0]    ***   
       DROPMO               IDRPMO      NONE         
       ECP                  IECP           OFF         [  0]    ***   
       EIGENVECTOR          IVEC                1               ***   
       EL_ANHARM            IELANH         OFF         [  0]    ***   
       EOMFOLLOW            IEOMSR         ENERGY      [  0]    ***   
       EOMIP                IEOMIP         OFF         [  0]    ***   
       EOMLEVEL             HBARFM         SAME        [  0]    ***   
       EOM_MRCC             IMRCCE         NEW         [  1]    ***   
       EOM_NONIT            EOMNON         OFF         [  0]    ***   
       EOM_NSING            IEOMSI          10D-  0             ***   
       EOM_NSTATES          IMRCCD         DAVIDSON    [  0]    ***   
       EOM_NTRIP            IEOMTR          10D-  0             ***   
       EOM_ORDER            IEXORD         ENERGY      [  0]    ***   
       EOM_PROPSTA          IEOMST              0               ***   
       ESTATE_CONV          IEXTOL          10D-  5             ***   
       ESTATE_DIAG          IEXDIG         ITERATIVE   [  0]    ***   
       ESTATE_LOCK          IESLOC         ON          [  1]    ***   
       ESTATE_MAXC          IEXMXC             40               ***   
       ESTATE_PROP          IEXPRP         OFF         [  0]    ***   
       EVAL_HESS            IRECAL              0            # of cyc.
       EXCITATION           IEXCIT              0               ***   
       EXCITE               IEXCIT         NONE        [  0]    ***   
       EXTERN_POT           IEXPOT         OFF         [  0]    ***   
       FCGRADNEW            IFCGNW         OFF         [  0]    ***   
       FC_FIELD             IFINFC              0             x 10-6  
       FD_CALTYPE           IFDCAL         GRADONLY    [  0]    ***   
       FD_PROJECT           IFDPRJ         OFF         [  1]    ***   
       FD_STEPSIZE          IDISFD              0            10-4 bohr
       FD_USEGROUP          IFDGRP         FULL        [  0]    ***   
       FILE_RECSIZ          IFLREC              4096           words  
       FINITE_PERT          IFIPER              0             x 10-6  
       FIXGEOM              IFIXGM         OFF         [  0]    ***   
       FOCK                 IFOCK          AO          [  1]    ***   
       FREQ_ALGORI          IVIALG         STANDARD    [  0]    ***   
       FROZEN_CORE          IFROCO         OFF         [  0]    ***   
       GAMMA_ABCD           IGABCD         STORE       [  0]    ***   
       GAMMA_ABCI           IGABCI         STORE       [  0]    ***   
       GENBAS_1             IGNBS1              0               ***   
       GENBAS_2             IGNBS2              0               ***   
       GENBAS_3             IGNBS3              0               ***   
       GENBAS_4             IGNBS4              0               ***   
       GEO_CONV             ICONTL              5              H/bohr 
       GEO_MAXCYC           IOPTCY             50               ***   
       GEO_MAXSTEP          IMXSTP            300            millibohr
       GEO_METHOD           INR            SINGLE_POINT[  5]    ***   
       GIAO                 IGIAO          OFF         [  1]    ***   
       GIMIC                IGIMIC         OFF         [  0]    ***   
       GRID                 IGRID          OFF         [  0]    ***   
       GRID_ALGO            IGALGO         SERIAL      [  0]    ***   
       GUESS                IGUESS         MOREAD      [  0]    ***   
       HBAR                 IHBAR          OFF         [  0]    ***   
       HESS_TYPE            IHESTP         SCF         [  0]    ***   
       HF2_FILE             IHF2Fl         USE         [  1]    ***   
       HFSTABILITY          ISTABL         OFF         [  0]    ***   
       INCORE               INCORE         OFF         [  0]    ***   
       INPUT_MRCC           IMRCC          ON          [  1]    ***   
       INTEGRALS            INTTYP         VMOL        [  1]    ***   
       JODA_PRINT           IJPRNT              0               ***   
       KEYWORD_OUT          IDMPKW         NO          [  0]    ***   
       LINDEP_TOL           ILINDP              8               ***   
       LINEQ_CONV           IZTACN          10D-  7           cycles  
       LINEQ_EXPOR          ILMAXD              5               ***   
       LINEQ_MAXCY          ILMAXC            100               ***   
       LINEQ_TYPE           ILTYPE         DIIS        [  1]    ***   
       LOCK_ORBOCC          ILOCOC         OFF         [  0]    ***   
       MEMORY_SIZE          IMEMSZ         500000000           words  
       MEM_UNIT             IMEMU          INTEGERWORDS[  0]    ***   
       MRCC                 IMRCCC         OFF         [  0]    ***   
       MULTIPLICTY          IMULTP              1               ***   
       NACOUPLING           IVCOUP         OFF         [  0]    ***   
       NEGEVAL              IDIE           ABORT       [  0]    ***   
       NEWNORM              INEWNO         OFF         [  0]    ***   
       NON-HF               INONHF         OFF         [  0]    ***   
       NTOP_TAMP            ITOPT2             15               ***   
       NUC_MODEL            INUCMO         POINT       [  0]    ***   
       OCCUPATION           IOCCU   ESTIMATED BY SCF 
       OPEN-SHELL           IOPEN          SPIN-ORBITAL[  0]    ***   
       OPTVIB               IOPTVB         OFF         [  0]    ***   
       ORBITALS             IORBTP         STANDARD    [  0]    ***   
       PARALLEL             IPARAL         ON          [  1]    ***   
       PARA_INT             IPINTS         ON          [  1]    ***   
       PARA_PRINT           IPPRIN              0               ***   
       PERT_ORB             IPTORB         STANDARD    [  0]    ***   
       POINTS               IGRDFD              0               ***   
       PRINT                IPRNT               0               ***   
       PROPS                IPROPS         OFF         [  0]    ***   
       PROP_INTEGR          IINTYP         INTERNAL    [  0]    ***   
       PSI                  IPSI           OFF         [  0]    ***   
       QC_ALG               IQCALG         FLM         [  0]    ***   
       QC_LINALG            IQCLIN         TRIDIAG     [  2]    ***   
       QC_MAXCYC            IQCMAX          10D-100           cycles  
       QC_MAXSCFCY          IQCMSC          10D- 15           cycles  
       QC_RTRUST            IQCRTR          10D-  0           x 10-3  
       QC_SKIPSCF           IQCSKI         OFF         [  0]    ***   
       QC_START             IQCSTA          10D-  1             ***   
       QRHFGUESS            IQGUES         OFF         [  0]    ***   
       QUARTIC              IQUART         OFF         [  0]    ***   
       RAMAN_INT            IRAMIN         OFF         [  0]    ***   
       RAMAN_ORB            IRAMRE         UNRELAXED   [  0]    ***   
       RDO                  IRDOFM         ON          [  1]    ***   
       REDUCE_REPR          REDREP         Ir          [  0]    ***   
       REFERENCE            IREFNC         RHF         [  0]    ***   
       RELATIVIST           IRELAT         OFF         [  0]    ***   
       RELAX_DENS           IRDENS         ON          [  1]    ***   
       RESET_FLAGS          IRESET         OFF         [  0]    ***   
       RESTART_CC           ICCRES         OFF         [  0]    ***   
       ROT_EVEC             ROTVEC              0               ***   
       SAVE_INTS            ISVINT         OFF         [  0]    ***   
       SCALE_ON             ISTCRT              0               ***   
       SCF_CONV             ISCFCV          10D- 10             ***   
       SCF_DAMPING          IDAMP               0             x 10-3  
       SCF_EXPORDE          IRPPOR              6               ***   
       SCF_EXPSTAR          IRPPLS              8               ***   
       SCF_EXTRAPO          IRPP           ON          [  1]    ***   
       SCF_MAXCYC           ISCFCY            150              cycles 
       SCF_NOSTOP           ISCFST         OFF         [  0]    ***   
       SCF_PRINT            ISCFPR              0               ***   
       SCF_PROG             ISCFPR         SCF         [  0]    ***   
       SD_FIELD             IFINSD              0             x 10-6  
       SOPERT               IPERSO         OFF         [  0]    ***   
       SPHERICAL            IDFGHI         ON          [  1]    ***   
       SPINORBIT            ISOCAL         OFF         [  0]    ***   
       SPINROTATIO          ISRCON         OFF         [  0]    ***   
       SPIN_FLIP            ISPFLP         OFF         [  0]    ***   
       SPIN_ORBIT           ISPORB         OFF         [  0]    ***   
       SPIN_SCAL            ISCSMP         OFF         [  0]    ***   
       STEEPSCALE           ISTPSC              1000          x 10-3  
       SUBGROUP             ISUBGP         DEFAULT     [  0]    ***   
       SUBGRPAXIS           ISBXYZ         X           [  0]    ***   
       SYMMETRY             ISYM           ON          [  0]    ***   
       SYM_CHECK            ISYMCK         OVERRIDE    [  1]    ***   
       T3_EXTRAPOL          IT3EXT         OFF         [  0]    ***   
       T4_EXTRAPOL          IT4EXP         OFF         [  0]    ***   
       TAMP_SUM             IEVERY              5               ***   
       TESTSUITE            ITESTS         OFF         [  0]    ***   
       THERMOCH             ITHERM         OFF         [  0]    ***   
       TOL_CHOLESK          ITOLCH          10D-  4             ***   
       TRANGRAD             IRESRM         OFF         [  0]    ***   
       TRANS_INV            ITRAIN         IGNORE      [  1]    ***   
       TREAT_PERT           ITREAT         SIMULTANEOUS[  0]    ***   
       TRIP_ALGORI          ITRALG         NORMAL      [  0]    ***   
       UIJ_THRESHO          IUIJTH              1               ***   
       UNITS                IUNITS         ANGSTROM    [  0]    ***   
       UNOS                 IUNOS          OFF         [  0]    ***   
       UPDATE_HESS          IHUPDT         ON          [  1]    ***   
       VIBPHASE             ISETPH         STANDARD    [  0]    ***   
       VIBRATION            IVIB           ANALYTIC    [  1]    ***   
       VIB_ALGORIT          IGEALG         STANDARD    [  0]    ***   
       VNATORB              IVNORB         OFF         [  0]    ***   
       VTRAN                IVTRAN         FULL/PARTIAL[  0]    ***   
       XFIELD               IXEFLD              0             x 10-6  
       XFORM_TOL            IXFTOL          10D- 11             ***   
       YFIELD               IYEFLD              0             x 10-6  
       ZFIELD               IZEFLD              0             x 10-6  
       ZSCALE_EXP           IZEXPS         OFF         [  0]    ***   
    -------------------------------------------------------------------
   3 entries found in Z-matrix 
   Job Title : Hypochlorous acid DBOC calculation                                              
   There are  3 unique internal coordinates.
   Of these,  0 will be optimized.
   User supplied Z-matrix: 
--------------------------------------------------------------------------------
       SYMBOL    BOND      LENGTH    ANGLE     ANGLE     DIHED     ANGLE
                  TO      (ANGST)    WRT      (DEG)      WRT      (DEG)
--------------------------------------------------------------------------------
        O    
        H          1         ROH  
        CL         1         ROCL       2        A    
                  *Initial values for internal coordinates* 
                      Name             Value
                        ROH             0.9600000000
                        ROCL            1.6830000000
                        A             116.0000000000
--------------------------------------------------------------------------------
   Rotational constants (in cm-1): 
          0.4918251947             0.5017925415            24.7602717879
   Rotational constants (in MHz): 
      14744.5504693087         15043.3640492401        742294.3779970846
********************************************************************************
   The full molecular point group is C s .
   The largest Abelian subgroup of the full molecular point group is C s .
   The computational point group is C s .
********************************************************************************
--------------------------------------------------------------------------------
   Analysis of internal coordinates specified by Z-matrix 
--------------------------------------------------------------------------------
   *The nuclear repulsion energy is   51.127797269239494 a.u.
   *There are   3 degrees of freedom within the tot. symm. molecular subspace.
   *Z-matrix requests optimization of   0 coordinates.
   *The optimization is constrained.
   *The following   3 parameters can have non-zero 
    derivatives within the totally symmetric subspace:
             A    [ 3]  ROH  [ 1]  ROCL [ 2]
   *The following   0 parameters are to be optimized:

   *The following coordinates must be varied in an  unconstrained optimization.
             A    [ 3]  ROH  [ 1]  ROCL [ 2]
--------------------------------------------------------------------------------


 ----------------------------------------------------------------
         Coordinates used in calculation (QCOMP) 
 ----------------------------------------------------------------
 Z-matrix   Atomic            Coordinates (in bohr)
  Symbol    Number           X              Y              Z
 ----------------------------------------------------------------
     O         8        -2.12143714     0.11838986     0.00000000
     H         1        -2.98265468    -1.47829391     0.00000000
     CL       17         1.05631718    -0.01154668     0.00000000
 ----------------------------------------------------------------
 
   Interatomic distance matrix (Angstroms) 
 
                 O             H             CL   
                [ 1]        [ 2]        [ 3]
  O    [ 1]     0.00000
  H    [ 2]     0.96000     0.00000
  CL   [ 3]     1.68300     2.27390     0.00000
 rotcon2
   Rotational constants (in cm-1): 
         24.7602717879             0.5017925415             0.4918251947
   Rotational constants (in MHz): 
     742294.3779970787         15043.3640492401         14744.5504693087
  ECPDATA file not present.   Using default ECPDATA. 
  @GTFLGS-I, Hessian will be transformed to curvilinear coordinates.
  There are  124 basis functions.
 @CHECKOUT-I, Total execution time (CPU/WALL):        0.24/       0.57 seconds.
--executable xjoda finished with status     0 in        0.62 seconds (walltime).
 --invoking executable--
/home/asmola/.local/bin/xvmol
 SERIAL VERSION OF MOLECULE STARTED
********************************************************************************
                    INPUT FROM MOL FILE
********************************************************************************
INTGRL        1    0    1    0    0    0    0    0    0                         
         *** CFOUR Program System (Release V0.1) ***                            
Hypochlorous acid DBOC calculation                                              
    3    1 Z          0.10E-08              0    0                              
   9999.00      3.00                                                            
          8.00000000    1    4    1    1    1    1                              
O #1  -2.121437143714247   0.118389861765392   0.000000000000000                
   11    5                                                                      
   15330.0000000000       5.080000000000000E-004 -1.150000000000000E-004        
  0.000000000000000E+000  0.000000000000000E+000  0.000000000000000E+000        
   2299.00000000000       3.929000000000000E-003 -8.950000000000000E-004        
  0.000000000000000E+000  0.000000000000000E+000  0.000000000000000E+000        
   522.400000000000       2.024300000000000E-002 -4.636000000000000E-003        
  0.000000000000000E+000  0.000000000000000E+000  0.000000000000000E+000        
   147.300000000000       7.918100000000000E-002 -1.872400000000000E-002        
  0.000000000000000E+000  0.000000000000000E+000  0.000000000000000E+000        
   47.5500000000000       0.230687000000000      -5.846300000000000E-002        
  0.000000000000000E+000  0.000000000000000E+000  0.000000000000000E+000        
   16.7600000000000       0.433118000000000      -0.136463000000000             
  0.000000000000000E+000  0.000000000000000E+000  0.000000000000000E+000        
   6.20700000000000       0.350260000000000      -0.175740000000000             
  0.000000000000000E+000  0.000000000000000E+000  0.000000000000000E+000        
   1.75200000000000       4.272800000000000E-002  0.160934000000000             
   1.00000000000000       0.000000000000000E+000  0.000000000000000E+000        
  0.688200000000000      -8.154000000000000E-003  0.603418000000000             
  0.000000000000000E+000  0.000000000000000E+000  0.000000000000000E+000        
  0.238400000000000       2.381000000000000E-003  0.378765000000000             
  0.000000000000000E+000   1.00000000000000       0.000000000000000E+000        
  7.376000000000001E-002  0.000000000000000E+000  0.000000000000000E+000        
  0.000000000000000E+000  0.000000000000000E+000   1.00000000000000             
    6    4                                                                      
   34.4600000000000       1.592800000000000E-002  0.000000000000000E+000        
  0.000000000000000E+000  0.000000000000000E+000                                
   7.74900000000000       9.974000000000000E-002  0.000000000000000E+000        
  0.000000000000000E+000  0.000000000000000E+000                                
   2.28000000000000       0.310492000000000       0.000000000000000E+000        
  0.000000000000000E+000  0.000000000000000E+000                                
  0.715600000000000       0.491026000000000        1.00000000000000             
  0.000000000000000E+000  0.000000000000000E+000                                
  0.214000000000000       0.336337000000000       0.000000000000000E+000        
   1.00000000000000       0.000000000000000E+000                                
  5.974000000000000E-002  0.000000000000000E+000  0.000000000000000E+000        
  0.000000000000000E+000   1.00000000000000                                     
    3    3                                                                      
   2.31400000000000        1.00000000000000       0.000000000000000E+000        
  0.000000000000000E+000                                                        
  0.645000000000000       0.000000000000000E+000   1.00000000000000             
  0.000000000000000E+000                                                        
  0.214000000000000       0.000000000000000E+000  0.000000000000000E+000        
   1.00000000000000                                                             
    2    2                                                                      
   1.42800000000000        1.00000000000000       0.000000000000000E+000        
  0.500000000000000       0.000000000000000E+000   1.00000000000000             
          1.00000000    1    3    1    1    1                                   
H #2  -2.982654682983349  -1.478293911952323   0.000000000000000                
    6    4                                                                      
   33.8700000000000       6.068000000000000E-003  0.000000000000000E+000        
  0.000000000000000E+000  0.000000000000000E+000                                
   5.09500000000000       4.530800000000000E-002  0.000000000000000E+000        
  0.000000000000000E+000  0.000000000000000E+000                                
   1.15900000000000       0.202822000000000       0.000000000000000E+000        
  0.000000000000000E+000  0.000000000000000E+000                                
  0.325800000000000       0.503903000000000        1.00000000000000             
  0.000000000000000E+000  0.000000000000000E+000                                
  0.102700000000000       0.383421000000000       0.000000000000000E+000        
   1.00000000000000       0.000000000000000E+000                                
  2.526000000000000E-002  0.000000000000000E+000  0.000000000000000E+000        
  0.000000000000000E+000   1.00000000000000                                     
    3    3                                                                      
   1.40700000000000        1.00000000000000       0.000000000000000E+000        
  0.000000000000000E+000                                                        
  0.388000000000000       0.000000000000000E+000   1.00000000000000             
  0.000000000000000E+000                                                        
  0.102000000000000       0.000000000000000E+000  0.000000000000000E+000        
   1.00000000000000                                                             
    2    2                                                                      
   1.05700000000000        1.00000000000000       0.000000000000000E+000        
  0.247000000000000       0.000000000000000E+000   1.00000000000000             
         17.00000000    1    4    1    1    1    1                              
CL#3   1.056317184941797  -0.011546679030703   0.000000000000000                
   16    6                                                                      
   456100.000000000       4.929700000000000E-005 -1.383040000000000E-005        
  0.000000000000000E+000  4.185460000000000E-006  0.000000000000000E+000        
  0.000000000000000E+000                                                        
   68330.0000000000       3.830290000000000E-004 -1.072790000000000E-004        
  0.000000000000000E+000  3.243950000000000E-005  0.000000000000000E+000        
  0.000000000000000E+000                                                        
   15550.0000000000       2.008540000000000E-003 -5.650830000000000E-004        
  0.000000000000000E+000  1.711050000000000E-004  0.000000000000000E+000        
  0.000000000000000E+000                                                        
   4405.00000000000       8.385580000000000E-003 -2.361350000000000E-003        
  0.000000000000000E+000  7.141760000000000E-004  0.000000000000000E+000        
  0.000000000000000E+000                                                        
   1439.00000000000       2.947030000000000E-002 -8.458860000000000E-003        
  0.000000000000000E+000  2.567050000000000E-003  0.000000000000000E+000        
  0.000000000000000E+000                                                        
   520.400000000000       8.783249999999999E-002 -2.596380000000000E-002        
  0.000000000000000E+000  7.885520000000000E-003  0.000000000000000E+000        
  0.000000000000000E+000                                                        
   203.100000000000       0.211473000000000      -6.863619999999999E-002        
  0.000000000000000E+000  2.108670000000000E-002  0.000000000000000E+000        
  0.000000000000000E+000                                                        
   83.9600000000000       0.365364000000000      -0.141874000000000             
  0.000000000000000E+000  4.422640000000000E-002  0.000000000000000E+000        
  0.000000000000000E+000                                                        
   36.2000000000000       0.340884000000000      -0.199319000000000             
  0.000000000000000E+000  6.516700000000000E-002  0.000000000000000E+000        
  0.000000000000000E+000                                                        
   15.8300000000000       0.102133000000000      -1.956620000000000E-002        
  0.000000000000000E+000  6.030120000000000E-003  0.000000000000000E+000        
  0.000000000000000E+000                                                        
   6.33400000000000       3.116750000000000E-003  0.499741000000000             
  0.000000000000000E+000 -0.206495000000000       0.000000000000000E+000        
  0.000000000000000E+000                                                        
   2.69400000000000       1.057510000000000E-003  0.563736000000000             
  0.000000000000000E+000 -0.405871000000000       0.000000000000000E+000        
  0.000000000000000E+000                                                        
  0.976800000000000      -3.780000000000000E-004  7.903250000000001E-002        
   1.00000000000000       7.595580000000000E-002  0.000000000000000E+000        
  0.000000000000000E+000                                                        
  0.431300000000000       1.561360000000000E-004 -8.350910000000000E-003        
  0.000000000000000E+000  0.725661000000000       0.000000000000000E+000        
  0.000000000000000E+000                                                        
  0.162500000000000      -5.141260000000000E-005  2.324560000000000E-003        
  0.000000000000000E+000  0.394423000000000        1.00000000000000             
  0.000000000000000E+000                                                        
  5.910000000000000E-002  0.000000000000000E+000  0.000000000000000E+000        
  0.000000000000000E+000  0.000000000000000E+000  0.000000000000000E+000        
   1.00000000000000                                                             
   10    5                                                                      
   663.300000000000       2.404480000000000E-003  0.000000000000000E+000        
 -6.521450000000000E-004  0.000000000000000E+000  0.000000000000000E+000        
   156.800000000000       1.921480000000000E-002  0.000000000000000E+000        
 -5.194450000000000E-003  0.000000000000000E+000  0.000000000000000E+000        
   49.9800000000000       8.850970000000000E-002  0.000000000000000E+000        
 -2.469380000000000E-002  0.000000000000000E+000  0.000000000000000E+000        
   18.4200000000000       0.256020000000000       0.000000000000000E+000        
 -7.281670000000000E-002  0.000000000000000E+000  0.000000000000000E+000        
   7.24000000000000       0.436927000000000       0.000000000000000E+000        
 -0.134030000000000       0.000000000000000E+000  0.000000000000000E+000        
   2.92200000000000       0.350334000000000       0.000000000000000E+000        
 -9.477420000000000E-002  0.000000000000000E+000  0.000000000000000E+000        
   1.02200000000000       5.854950000000000E-002   1.00000000000000             
  0.262289000000000       0.000000000000000E+000  0.000000000000000E+000        
  0.381800000000000      -4.584230000000000E-003  0.000000000000000E+000        
  0.564667000000000       0.000000000000000E+000  0.000000000000000E+000        
  0.130100000000000       2.269700000000000E-003  0.000000000000000E+000        
  0.341250000000000        1.00000000000000       0.000000000000000E+000        
  4.190000000000000E-002  0.000000000000000E+000  0.000000000000000E+000        
  0.000000000000000E+000  0.000000000000000E+000   1.00000000000000             
    4    4                                                                      
   4.61000000000000        1.00000000000000       0.000000000000000E+000        
  0.000000000000000E+000  0.000000000000000E+000                                
   1.01100000000000       0.000000000000000E+000   1.00000000000000             
  0.000000000000000E+000  0.000000000000000E+000                                
  0.339000000000000       0.000000000000000E+000  0.000000000000000E+000        
   1.00000000000000       0.000000000000000E+000                                
  0.130000000000000       0.000000000000000E+000  0.000000000000000E+000        
  0.000000000000000E+000   1.00000000000000                                     
    2    2                                                                      
  0.706000000000000        1.00000000000000       0.000000000000000E+000        
  0.312000000000000       0.000000000000000E+000   1.00000000000000             
FINISH                                                                          
 
********************************************************************************
 ONE- AND TWO-ELECTRON INTEGRALS OVER SYMMETRY-ADAPTED AOS ARE CALCULATED.

  SPHERICAL HARMONICS ARE USED.
  
  INTEGRALS LESS THAN  0.10E-13 ARE NEGLECTED.

  NUCLEAR REPULSION ENERGY :   51.1277972692 A.U.
  @MOLECU-I, ONE ELECTRON INTEGRALS (CPU/WALL):        0.04/       0.04 SECONDS.
  @TWOEL-I,    5908214 INTEGRALS OF SYMMETRY TYPE  I I I I
  @TWOEL-I,    5650196 INTEGRALS OF SYMMETRY TYPE  I J I J
  @TWOEL-I,    2920892 INTEGRALS OF SYMMETRY TYPE  I I J J
  @TWOEL-I, TOTAL NUMBER OF 2-E INTEGRALS   14479302.
  @MOLECU-I, TWO ELECTRON INTEGRALS (CPU/WALL):       26.92/       4.30 SECONDS.
 @CHECKOUT-I, Total execution time (CPU/WALL):       26.97/       4.37 seconds.

Running with 14 threads/proc

--executable xvmol finished with status     0 in        4.48 seconds (walltime).
 --invoking executable--
/home/asmola/.local/bin/xvmol2ja
 @GETMEM-I,  Allocated    3814 MB of main memory.
 @CHECKOUT-I, Total execution time (CPU/WALL):        0.24/       0.06 seconds.
--executable xvmol2ja finished with status     0 in        0.09 seconds (walltime).
 --invoking executable--
/home/asmola/.local/bin/xvscf
  There are  124 functions in the AO basis.

  There are 2 irreducible representations.

       Irrep        # of functions
         1                 82
         2                 42


  Parameters for SCF calculation: 
        SCF reference function:  RHF  
  Maximum number of iterations:  150
     Full symmetry point group: C s 
     Computational point group: C s 
        Initial density matrix: MOREAD                 
     SCF convergence tolerance: 10**(-10)
  DIIS convergence acceleration:  ON
          Latest start for DIIS:   8
                     DIIS order:   6

  Memory information:     774068 words required.
  Fock matrices are constructed from AO integral file.
 @GETMEM-I,  Allocated       5 MB of main memory.
  Initialization and symmetry analysis required      0.001 seconds.

  @INITGES-I, Occupancies from core Hamiltonian:

          Alpha population by irrep:  10    3
           Beta population by irrep:  10    3


 total no. of electrons in initial guess :  0.000000000000000E+000
  --------------------------------------------------------------------
  Iteration         Total Energy            Largest Density Difference
  --------------------------------------------------------------------
       0            51.127797269239501              0.0000000000D+00
   current occupation vector 
    10  3
    10  3
       1          -414.722361314679574              0.1578058582D+02
   current occupation vector 
    10  3
    10  3
       2          -337.919954038846868              0.1577629960D+02
   current occupation vector 
    10  3
    10  3
       3          -435.063288234960282              0.1057098770D+02
   current occupation vector 
    10  3
    10  3
       4          -336.012743642895487              0.1057191265D+02
   current occupation vector 
    10  3
    10  3
       5          -435.374542082586686              0.1051329355D+02
   current occupation vector 
    10  3
    10  3
       6          -335.972335500727922              0.1051329924D+02
   current occupation vector 
    10  3
    10  3
       7          -435.385727300222868              0.1051118490D+02
   current occupation vector 
    10  3
    10  3
       8          -335.971005229789228              0.1051118492D+02
   current occupation vector 
    10  3
    10  3
       9          -472.208155195664631              0.7896028438D+01
   current occupation vector 
    10  3
    10  3
      10          -486.291834044174379              0.2574549185D+01
   current occupation vector 
    10  3
    10  3
      11          -515.484444547511202              0.2270732892D+01
   current occupation vector 
    11  2
    11  2
      12          -530.831462252444339              0.1099418808D+01
   current occupation vector 
    11  2
    11  2
      13          -533.677238254148051              0.7091620847D+00
   current occupation vector 
    11  2
    11  2
      14          -534.496423232484517              0.7230608926D+00
   current occupation vector 
    11  2
    11  2
      15          -534.534842146041569              0.2671723000D+00
   current occupation vector 
    11  2
    11  2
      16          -534.544864652950992              0.1342951794D+00
   current occupation vector 
    11  2
    11  2
      17          -534.552056442585126              0.8734745409D-01
   current occupation vector 
    11  2
    11  2
      18          -534.553935991834919              0.7758462302D-01
   current occupation vector 
    11  2
    11  2
      19          -534.553981951984952              0.1095129362D-01
   current occupation vector 
    11  2
    11  2
      20          -534.553989687051512              0.3365156934D-02
   current occupation vector 
    11  2
    11  2
      21          -534.553990974289945              0.1332702109D-02
   current occupation vector 
    11  2
    11  2
      22          -534.553991133672753              0.5810552009D-03
   current occupation vector 
    11  2
    11  2
      23          -534.553991138212268              0.1248558238D-03
   current occupation vector 
    11  2
    11  2
      24          -534.553991138919628              0.4052947170D-04
   current occupation vector 
    11  2
    11  2
      25          -534.553991139002051              0.1388441799D-04
   current occupation vector 
    11  2
    11  2
      26          -534.553991139018990              0.6038926003D-05
   current occupation vector 
    11  2
    11  2
      27          -534.553991139022855              0.8409069465D-06
   current occupation vector 
    11  2
    11  2
      28          -534.553991139025811              0.1160573659D-06
   current occupation vector 
    11  2
    11  2
      29          -534.553991139020809              0.5431548333D-07
   current occupation vector 
    11  2
    11  2
      30          -534.553991139021036              0.3427258677D-07
   current occupation vector 
    11  2
    11  2
      31          -534.553991139021946              0.6171573724D-08
   current occupation vector 
    11  2
    11  2
      32          -534.553991139020809              0.4354535732D-08
   current occupation vector 
    11  2
    11  2
      33          -534.553991139023196              0.2171927083D-08
   current occupation vector 
    11  2
    11  2
      34          -534.553991139025584              0.7281688585D-09
   current occupation vector 
    11  2
    11  2
      35          -534.553991139023992              0.5194775721D-09
   current occupation vector 
    11  2
    11  2

  SCF has converged.

 Density matrix saved to file den.dat
 total electron number:   26.0000000000002     
     E(SCF)=      -534.553991139025698              0.7607381391D-10


  Final occupancies:

     Alpha population by irrep:  11    2
      Beta population by irrep:  11    2


  Eigenvector printing suppressed.

 @PUTMOS-I, Writing converged MOs to NEWMOS. 
 @PUTMOS-I, Symmetry   1 Full Blocks 20 Partial Blocksize   2
 @PUTMOS-I, Symmetry   2 Full Blocks 10 Partial Blocksize   2
 @PUTFOCK-I, Writing converged Fock matrix to NEWFOCK. 
 @PUTFOCK-I, Symmetry   1 Full Blocks 20 Partial Blocksize   2
 @PUTFOCK-I, Symmetry   2 Full Blocks 10 Partial Blocksize   2


 
  ORBITAL EIGENVALUES (ALPHA)  (1H = 27.2113834 eV)

       MO #        E(hartree)               E(eV)           FULLSYM    COMPSYM
       ----   --------------------   --------------------   -------   ---------
    1     1        -104.9126924169       -2854.8194968814     A'        A'  (1)
    2     2         -20.6599155506        -562.1848830600     A'        A'  (1)
    3     3         -10.6298239925        -289.2522161354     A'        A'  (1)
    4    83          -8.0947281049        -220.2687499810     A''       A'' (2)
    5     4          -8.0941174822        -220.2521340930     A'        A'  (1)
    6     5          -8.0906771417        -220.1585176694     A'        A'  (1)
    7     6          -1.4307139061         -38.9317046337     A'        A'  (1)
    8     7          -1.0788046013         -29.3557656196     A'        A'  (1)
    9     8          -0.7586210115         -20.6431271997     A'        A'  (1)
   10     9          -0.6689147943         -18.2020969308     A'        A'  (1)
   11    84          -0.5263114726         -14.3216632699     A''       A'' (2)
   12    10          -0.4832664709         -13.1503492250     A'        A'  (1)
   13    11          -0.2758438867          -7.5060937603     A'        A'  (1)
  +++++++++++++++++++++++++++++++++++++++++++++++++++++++++++++++++++++++++++++
   14    85          -0.0966730285          -2.6306068420     A''       A'' (2)
   15    12           0.0285021536           0.7755830292     A'        A'  (1)
   16    13           0.1049439376           2.8556697206     A'        A'  (1)
   17    86           0.1111080019           3.0234024384     A''       A'' (2)
   18    14           0.1131522497           3.0790292495     A'        A'  (1)
   19    15           0.1460035673           3.9729590481     A'        A'  (1)
   20    16           0.1667825627           4.5383842568     A'        A'  (1)
   21    17           0.1691020854           4.6015016809     A'        A'  (1)
   22    87           0.1823783580           4.9627674223     A''       A'' (2)
   23    18           0.2383036386           6.4845716745     A'        A'  (1)
   24    88           0.2526363058           6.8745833766     A''       A'' (2)
   25    19           0.2997859677           8.1575909060     A'        A'  (1)
   26    20           0.3086077066           8.3976426242     A'        A'  (1)
   27    89           0.3625140111           9.8645077430     A''       A'' (2)
   28    21           0.3781431774          10.2897989813     A'        A'  (1)
   29    90           0.4108596503          11.1800594673     A''       A'' (2)
   30    22           0.4147216032          11.2851485486     A'        A'  (1)
   31    23           0.4394628177          11.9583912238     A'        A'  (1)
   32    24           0.4812367282          13.0951171166     A'        A'  (1)
   33    91           0.5981018500          16.2751787513     A''       A'' (2)
   34    25           0.6147436921          16.7280262984     A'        A'  (1)
   35    26           0.6695944100          18.2205902142     A'        A'  (1)
   36    27           0.6873414538          18.7035118264     A'        A'  (1)
   37    92           0.6990636444          19.0224888493     A''       A'' (2)
   38    28           0.7179540917          19.5365240518     A'        A'  (1)
   39    93           0.7463491729          20.3091934937     A''       A'' (2)
   40    29           0.7809416831          21.2505035520     A'        A'  (1)
   41    30           0.8361211207          22.7520123848     A'        A'  (1)
   42    94           0.8461865296          23.0259060847     A''       A'' (2)
   43    95           0.8747596793          23.8034210158     A''       A'' (2)
   44    31           0.8852227306          24.0881351173     A'        A'  (1)
   45    32           0.9073969154          24.6915253596     A'        A'  (1)
   46    96           0.9170343318          24.9537727929     A''       A'' (2)
   47    33           0.9171880904          24.9579567786     A'        A'  (1)
   48    34           0.9530412902          25.9335719424     A'        A'  (1)
   49    35           0.9778948537          26.6098717880     A'        A'  (1)
   50    97           1.0037027607          27.3121406398     A''       A'' (2)
   51    36           1.0085740320          27.4446946715     A'        A'  (1)
   52    98           1.1139135516          30.3111287271     A''       A'' (2)
   53    37           1.1293441855          30.7310176224     A'        A'  (1)
   54    99           1.1963621850          32.5546701018     A''       A'' (2)
   55    38           1.2045020442          32.7761669321     A'        A'  (1)
   56    39           1.2728801559          34.6368299440     A'        A'  (1)
   57    40           1.3357467276          36.3475163314     A'        A'  (1)
   58   100           1.3654974440          37.1570744812     A''       A'' (2)
   59    41           1.4024653518          38.1630223924     A'        A'  (1)
   60   101           1.5030587387          40.9003076101     A''       A'' (2)
   61   102           1.5508442470          42.2006173979     A''       A'' (2)
   62    42           1.6183042075          44.0362962473     A'        A'  (1)
   63    43           1.6732685384          45.5319517292     A'        A'  (1)
   64    44           1.7225614937          46.8732812345     A'        A'  (1)
   65    45           1.8922713640          51.4913215823     A'        A'  (1)
   66    46           2.0741597459          56.4407560795     A'        A'  (1)
   67   103           2.1367404481          58.1436635591     A''       A'' (2)
   68    47           2.2001932553          59.8703022253     A'        A'  (1)
   69   104           2.2243003318          60.5262891248     A''       A'' (2)
   70    48           2.2574768359          61.4290676988     A'        A'  (1)
   71   105           2.2609641346          61.5239619204     A''       A'' (2)
   72    49           2.3158992892          63.0188234739     A'        A'  (1)
   73    50           2.3604286025          64.2305276913     A'        A'  (1)
   74   106           2.4014842572          65.3477088504     A''       A'' (2)
   75    51           2.4027178904          65.3812777169     A'        A'  (1)
   76   107           2.4286218718          66.0861608876     A''       A'' (2)
   77    52           2.4550479363          66.8052506606     A'        A'  (1)
   78   108           2.4750624055          67.3498720549     A''       A'' (2)
   79    53           2.5010883215          68.0580732326     A'        A'  (1)
   80    54           2.5352595363          68.9879192595     A'        A'  (1)
   81   109           2.7155198544          73.8930518890     A''       A'' (2)
   82    55           2.8454164478          77.4277178941     A'        A'  (1)
   83   110           2.9019114093          78.9650239511     A''       A'' (2)
   84    56           2.9486770417          80.2375815037     A'        A'  (1)
   85    57           2.9753971267          80.9646719818     A'        A'  (1)
   86   111           3.0119790563          81.9601168938     A''       A'' (2)
   87    58           3.0254630249          82.3270343339     A'        A'  (1)
   88    59           3.1109965509          84.6545199016     A'        A'  (1)
   89   112           3.1138715565          84.7327527819     A''       A'' (2)
   90    60           3.2930504027          89.6084570641     A'        A'  (1)
   91   113           3.3477522895          91.0969710780     A''       A'' (2)
   92    61           3.4240245884          93.1724458462     A'        A'  (1)
   93    62           3.6562705622          99.4921800827     A'        A'  (1)
   94    63           3.7467335659         101.9538035606     A'        A'  (1)
   95   114           4.1346741292         112.5102029635     A''       A'' (2)
   96   115           4.1537477138         113.0292215875     A''       A'' (2)
   97    64           4.2643780956         116.0396273212     A'        A'  (1)
   98   116           4.3602100215         118.6473465983     A''       A'' (2)
   99    65           4.5724702000         124.4232396981     A'        A'  (1)
  100    66           4.7239159331         128.5442876045     A'        A'  (1)
  101    67           4.8204878368         131.1721427012     A'        A'  (1)
  102    68           5.1813730313         140.9923280938     A'        A'  (1)
  103   117           5.2909221126         143.9733101466     A''       A'' (2)
  104    69           5.5597738778         151.2891386055     A'        A'  (1)
  105    70           6.1052088105         166.1311776807     A'        A'  (1)
  106    71           6.2773629365         170.8157296048     A'        A'  (1)
  107   118           6.5873991983         179.2522451942     A''       A'' (2)
  108    72           6.6219377689         180.1920874799     A'        A'  (1)
  109   119           6.7108321498         182.6110265617     A''       A'' (2)
  110    73           6.7639679843         184.0569261268     A'        A'  (1)
  111   120           7.0846013807         192.7818044057     A''       A'' (2)
  112    74           7.1269539535         193.9342765030     A'        A'  (1)
  113   121           7.1491182327         194.5373972032     A''       A'' (2)
  114   122           7.2352263892         196.8805192633     A''       A'' (2)
  115    75           7.2474218387         197.2123743149     A'        A'  (1)
  116    76           7.4415113660         202.4938188569     A'        A'  (1)
  117    77           7.6628625963         208.5170920491     A'        A'  (1)
  118    78           8.0263980166         218.4093937514     A'        A'  (1)
  119   123           8.7358128109         237.7135517086     A''       A'' (2)
  120    79           8.7378030370         237.7677085136     A'        A'  (1)
  121   124           8.8068740632         239.6472266903     A''       A'' (2)
  122    80           8.8940656558         242.0198305442     A'        A'  (1)
  123    81           9.2639799892         252.0857112955     A'        A'  (1)
  124    82          14.5140450896         394.9472456171     A'        A'  (1)


  VSCF finished.

 @CHECKOUT-I, Total execution time (CPU/WALL):       40.01/       5.19 seconds.
--executable xvscf finished with status     0 in        5.24 seconds (walltime).
 --invoking executable--
/home/asmola/.local/bin/xvtran
 @GETMEM-I,  Allocated    3814 MB of main memory.
  Full RHF integral transformation
  Transformation of IIII integrals :
  1 pass through the AO integral file was required.
     5908214 AO integrals were read.
     6200062 MO integrals were written to HF2.
  Transformation of IIJJ integrals :
  1 pass through the AO integral file was required.
     2920892 AO integrals were read.
     3072909 MO integrals were written to HF2.
  Transformation of IJIJ integrals :
  1 pass through the AO integral file was required.
     5650196 AO integrals were read.
     5932290 MO integrals were written to HF2.
  Summary of active molecular orbitals: 
------------------------------------------------------------------------
 
  Index      Eigenvalue    Symmetry    Index      Eigenvalue    Symmetry
------------------------------------------------------------------------
     1      -104.9126924        1        63         3.4240246        1
     2       -20.6599156        1        64         3.6562706        1
     3       -10.6298240        1        65         3.7467336        1
     4        -8.0941175        1        66         4.2643781        1
     5        -8.0906771        1        67         4.5724702        1
     6        -1.4307139        1        68         4.7239159        1
     7        -1.0788046        1        69         4.8204878        1
     8        -0.7586210        1        70         5.1813730        1
     9        -0.6689148        1        71         5.5597739        1
    10        -0.4832665        1        72         6.1052088        1
    11        -0.2758439        1        73         6.2773629        1
    12        -8.0947281        2        74         6.6219378        1
    13        -0.5263115        2        75         6.7639680        1
    14         0.0285022        1        76         7.1269540        1
    15         0.1049439        1        77         7.2474218        1
    16         0.1131522        1        78         7.4415114        1
    17         0.1460036        1        79         7.6628626        1
    18         0.1667826        1        80         8.0263980        1
    19         0.1691021        1        81         8.7378030        1
    20         0.2383036        1        82         8.8940657        1
    21         0.2997860        1        83         9.2639800        1
    22         0.3086077        1        84        14.5140451        1
    23         0.3781432        1        85        -0.0966730        2
    24         0.4147216        1        86         0.1111080        2
    25         0.4394628        1        87         0.1823784        2
    26         0.4812367        1        88         0.2526363        2
    27         0.6147437        1        89         0.3625140        2
    28         0.6695944        1        90         0.4108597        2
    29         0.6873415        1        91         0.5981018        2
    30         0.7179541        1        92         0.6990636        2
    31         0.7809417        1        93         0.7463492        2
    32         0.8361211        1        94         0.8461865        2
    33         0.8852227        1        95         0.8747597        2
    34         0.9073969        1        96         0.9170343        2
    35         0.9171881        1        97         1.0037028        2
    36         0.9530413        1        98         1.1139136        2
    37         0.9778949        1        99         1.1963622        2
    38         1.0085740        1       100         1.3654974        2
    39         1.1293442        1       101         1.5030587        2
    40         1.2045020        1       102         1.5508442        2
    41         1.2728802        1       103         2.1367404        2
    42         1.3357467        1       104         2.2243003        2
    43         1.4024654        1       105         2.2609641        2
    44         1.6183042        1       106         2.4014843        2
    45         1.6732685        1       107         2.4286219        2
    46         1.7225615        1       108         2.4750624        2
    47         1.8922714        1       109         2.7155199        2
    48         2.0741597        1       110         2.9019114        2
    49         2.2001933        1       111         3.0119791        2
    50         2.2574768        1       112         3.1138716        2
    51         2.3158993        1       113         3.3477523        2
    52         2.3604286        1       114         4.1346741        2
    53         2.4027179        1       115         4.1537477        2
    54         2.4550479        1       116         4.3602100        2
    55         2.5010883        1       117         5.2909221        2
    56         2.5352595        1       118         6.5873992        2
    57         2.8454164        1       119         6.7108321        2
    58         2.9486770        1       120         7.0846014        2
    59         2.9753971        1       121         7.1491182        2
    60         3.0254630        1       122         7.2352264        2
    61         3.1109966        1       123         8.7358128        2
    62         3.2930504        1       124         8.8068741        2
------------------------------------------------------------------------
  -104.912692416856       -20.6599155506367       -10.6298239925367     
  -8.09411748220793       -8.09067714173761       -1.43071390606785     
  -1.07880460129731      -0.758621011519245      -0.668914794341631     
 -0.483266470934523      -0.275843886727731       -8.09472810489177     
 -0.526311472643567       2.850215359397623E-002  0.104943937565990     
  0.113152249713284       0.146003567320846       0.166782562653243     
  0.169102085449240       0.238303638561486       0.299785967736748     
  0.308607706589090       0.378143177434376       0.414721603186041     
  0.439462817748611       0.481236728176222       0.614743692096601     
  0.669594410042708       0.687341453812451       0.717954091662725     
  0.780941683105881       0.836121120720847       0.885222730619283     
  0.907396915351228       0.917188090431027       0.953041290152225     
  0.977894853665762        1.00857403197901        1.12934418550641     
   1.20450204424899        1.27288015588466        1.33574672764975     
   1.40246535177535        1.61830420746894        1.67326853838509     
   1.72256149367801        1.89227136398635        2.07415974593429     
   2.20019325534451        2.25747683591898        2.31589928918807     
   2.36042860251238        2.40271789036853        2.45504793632116     
   2.50108832146157        2.53525953625280        2.84541644781142     
   2.94867704167251        2.97539712669731        3.02546302493112     
   3.11099655086314        3.29305040272416        3.42402458840769     
   3.65627056221990        3.74673356594683        4.26437809557306     
   4.57247020003099        4.72391593308410        4.82048783676264     
   5.18137303132327        5.55977387777738        6.10520881054210     
   6.27736293645475        6.62193776887954        6.76396798432681     
   7.12695395350481        7.24742183871951        7.44151136604493     
   7.66286259628631        8.02639801662638        8.73780303700433     
   8.89406565577874        9.26397998917802        14.5140450895654     
 -9.667302846349768E-002  0.111108001896322       0.182378357958351     
  0.252636305752568       0.362514011064990       0.410859650277079     
  0.598101849952573       0.699063644418459       0.746349172886813     
  0.846186529593443       0.874759679281323       0.917034331776374     
   1.00370276065437        1.11391355160105        1.19636218501950     
   1.36549744402811        1.50305873865069        1.55084424696646     
   2.13674044808411        2.22430033177866        2.26096413460535     
   2.40148425715099        2.42862187181570        2.47506240549853     
   2.71551985442253        2.90191140929338        3.01197905630177     
   3.11387155648626        3.34775228950823        4.13467412919007     
   4.15374771381372        4.36021002145388        5.29092211264041     
   6.58739919831637        6.71083214981617        7.08460138067493     
   7.14911823274491        7.23522638923529        8.73581281092151     
   8.80687406323803     
 @CHECKOUT-I, Total execution time (CPU/WALL):       14.51/       7.34 seconds.
--executable xvtran finished with status     0 in        7.39 seconds (walltime).
 --invoking executable--
/home/asmola/.local/bin/xintprc
 @GETMEM-I,  Allocated    3814 MB of main memory.
  Processing integrals for CCSD calculation.
  @GMOIAA-I, Processing MO integrals for spin case AA.
  @GMOIAA-I, Generation of integral list completed.
                      TYPE                NUMBER
                      ----               --------
                      PPPP               9734596
                      PPPH               4559616
                      PPHH                540744
                      PHPH                295424
                      PHHH                 72213
                      HHHH                  2668

                     TOTAL              15205261

  @FORMT2-I, Second-order MP correlation energies:
            ------------------------------------------------
            E(SCF)                  =   -534.553991139026 a.u.
            E2(AA)                  =     -0.080749359753 a.u.
            E2(AB)                  =     -0.462573102613 a.u.
            E2(TOT)                 =     -0.624071822118 a.u.
            Total MP2 energy        =   -535.178062961144 a.u.
            ------------------------------------------------
   Largest T2 amplitudes for spin case AB:
       _       _                 _       _                 _       _
   i   j   a   b             i   j   a   b             i   j   a   b
-----------------------------------------------------------------------------
[ 13  13  85  85]-0.17472 [ 11  11  85  85]-0.05418 [  7   7  85  85]-0.03095
[ 13  13  87  85]-0.02914 [ 13  13  85  87]-0.02914 [ 11  11  26  26]-0.02331
[ 10  10  85  85]-0.02321 [ 13  11  85  37] 0.02294 [ 11  13  37  85] 0.02294
[ 13  13  90  85]-0.02205 [ 13  13  85  90]-0.02205 [  6   6  85  85]-0.01748
[ 13   8  85  26]-0.01707 [  8  13  26  85]-0.01707 [ 13  11  85  26]-0.01698
-----------------------------------------------------------------------------
   Norm of T2AB vector (  1080045 symmetry allowed elements):  0.3866844623.
-----------------------------------------------------------------------------
 @CHECKOUT-I, Total execution time (CPU/WALL):        3.47/       2.73 seconds.
--executable xintprc finished with status     0 in        2.81 seconds (walltime).
  calling xvcc 
 --invoking executable--
/home/asmola/.local/bin/xvcc
 @GETMEM-I,  Allocated    3814 MB of main memory.
   CCSD energy will be calculated.
   The total correlation energy is -0.624071822118 a.u.
   The total correlation energy is -0.607610965761 a.u.
  Convergence information after     1 iterations: 
  Largest element of residual vector : -0.52157776E-01.
  Largest element of DIIS residual   : -0.52157776E-01.
   The total correlation energy is -0.634061393727 a.u.
  Convergence information after     2 iterations: 
  Largest element of residual vector : -0.80164718E-01.
  Largest element of DIIS residual   : -0.68258493E-01.
   The total correlation energy is -0.633222546564 a.u.
  Convergence information after     3 iterations: 
  Largest element of residual vector : -0.91949957E-01.
  Largest element of DIIS residual   : -0.56015481E-01.
   The total correlation energy is -0.630946501528 a.u.
  Convergence information after     4 iterations: 
  Largest element of residual vector : -0.73468600E-01.
  Largest element of DIIS residual   : -0.24390759E-01.
   The total correlation energy is -0.629500547566 a.u.
  Convergence information after     5 iterations: 
  Largest element of residual vector : -0.20654513E-01.
  Largest element of DIIS residual   : -0.35268797E-02.
   The total correlation energy is -0.631330501277 a.u.
  Convergence information after     6 iterations: 
  Largest element of residual vector : -0.47721118E-02.
  Largest element of DIIS residual   :  0.26031642E-02.
   The total correlation energy is -0.631454886590 a.u.
  Convergence information after     7 iterations: 
  Largest element of residual vector :  0.24157574E-02.
  Largest element of DIIS residual   :  0.19211957E-02.
   The total correlation energy is -0.631575031945 a.u.
  Convergence information after     8 iterations: 
  Largest element of residual vector :  0.12693763E-02.
  Largest element of DIIS residual   :  0.65462772E-03.
   The total correlation energy is -0.631532950535 a.u.
  Convergence information after     9 iterations: 
  Largest element of residual vector :  0.83986068E-03.
  Largest element of DIIS residual   :  0.44942212E-03.
   The total correlation energy is -0.631574676547 a.u.
  Convergence information after    10 iterations: 
  Largest element of residual vector : -0.57227212E-03.
  Largest element of DIIS residual   : -0.58211650E-03.
   The total correlation energy is -0.631587889212 a.u.
  Convergence information after    11 iterations: 
  Largest element of residual vector : -0.76824978E-03.
  Largest element of DIIS residual   : -0.64884029E-03.
   The total correlation energy is -0.631598479714 a.u.
  Convergence information after    12 iterations: 
  Largest element of residual vector : -0.85897124E-03.
  Largest element of DIIS residual   : -0.59851553E-03.
   The total correlation energy is -0.631584771586 a.u.
  Convergence information after    13 iterations: 
  Largest element of residual vector : -0.78406494E-03.
  Largest element of DIIS residual   : -0.53134162E-03.
   The total correlation energy is -0.631565694090 a.u.
  Convergence information after    14 iterations: 
  Largest element of residual vector : -0.68722628E-03.
  Largest element of DIIS residual   : -0.46030927E-03.
   The total correlation energy is -0.631558285309 a.u.
  Convergence information after    15 iterations: 
  Largest element of residual vector : -0.58725792E-03.
  Largest element of DIIS residual   : -0.45010162E-03.
   The total correlation energy is -0.631554821848 a.u.
  Convergence information after    16 iterations: 
  Largest element of residual vector : -0.58057805E-03.
  Largest element of DIIS residual   : -0.43506721E-03.
   The total correlation energy is -0.631553830951 a.u.
  Convergence information after    17 iterations: 
  Largest element of residual vector : -0.56585844E-03.
  Largest element of DIIS residual   : -0.47112315E-03.
   The total correlation energy is -0.631560017362 a.u.
  Convergence information after    18 iterations: 
  Largest element of residual vector : -0.61366007E-03.
  Largest element of DIIS residual   : -0.41848833E-03.
   The total correlation energy is -0.631556957671 a.u.
  Convergence information after    19 iterations: 
  Largest element of residual vector : -0.53708061E-03.
  Largest element of DIIS residual   : -0.32878178E-03.
   The total correlation energy is -0.631538134627 a.u.
  Convergence information after    20 iterations: 
  Largest element of residual vector : -0.29832204E-03.
  Largest element of DIIS residual   : -0.28606723E-03.
   The total correlation energy is -0.631539815682 a.u.
  Convergence information after    21 iterations: 
  Largest element of residual vector : -0.25944932E-03.
  Largest element of DIIS residual   : -0.21487829E-03.
   The total correlation energy is -0.631545206258 a.u.
  Convergence information after    22 iterations: 
  Largest element of residual vector : -0.19472790E-03.
  Largest element of DIIS residual   : -0.13371070E-03.
   The total correlation energy is -0.631549119151 a.u.
  Convergence information after    23 iterations: 
  Largest element of residual vector : -0.12125584E-03.
  Largest element of DIIS residual   :  0.47906192E-04.
   The total correlation energy is -0.631554553748 a.u.
  Convergence information after    24 iterations: 
  Largest element of residual vector : -0.52384133E-04.
  Largest element of DIIS residual   :  0.40663633E-04.
   The total correlation energy is -0.631553175182 a.u.
  Convergence information after    25 iterations: 
  Largest element of residual vector : -0.46155823E-04.
  Largest element of DIIS residual   : -0.51867982E-04.
   The total correlation energy is -0.631553897234 a.u.
  Convergence information after    26 iterations: 
  Largest element of residual vector : -0.70242007E-04.
  Largest element of DIIS residual   : -0.54848469E-04.
   The total correlation energy is -0.631554208820 a.u.
  Convergence information after    27 iterations: 
  Largest element of residual vector : -0.74852222E-04.
  Largest element of DIIS residual   : -0.54325272E-04.
   The total correlation energy is -0.631553342843 a.u.
  Convergence information after    28 iterations: 
  Largest element of residual vector : -0.72371162E-04.
  Largest element of DIIS residual   : -0.53677290E-04.
   The total correlation energy is -0.631553407195 a.u.
  Convergence information after    29 iterations: 
  Largest element of residual vector : -0.71543828E-04.
  Largest element of DIIS residual   : -0.42966589E-04.
   The total correlation energy is -0.631553134532 a.u.
  Convergence information after    30 iterations: 
  Largest element of residual vector : -0.58150471E-04.
  Largest element of DIIS residual   : -0.28446487E-04.
   The total correlation energy is -0.631549720680 a.u.
  Convergence information after    31 iterations: 
  Largest element of residual vector : -0.37359455E-04.
  Largest element of DIIS residual   : -0.21384298E-04.
   The total correlation energy is -0.631548774807 a.u.
  Convergence information after    32 iterations: 
  Largest element of residual vector : -0.27910429E-04.
  Largest element of DIIS residual   : -0.14772253E-04.
   The total correlation energy is -0.631548498621 a.u.
  Convergence information after    33 iterations: 
  Largest element of residual vector : -0.19898991E-04.
  Largest element of DIIS residual   : -0.74772564E-05.
   The total correlation energy is -0.631547976130 a.u.
  Convergence information after    34 iterations: 
  Largest element of residual vector : -0.10530436E-04.
  Largest element of DIIS residual   : -0.64211057E-05.
   The total correlation energy is -0.631548056029 a.u.
  Convergence information after    35 iterations: 
  Largest element of residual vector : -0.92171303E-05.
  Largest element of DIIS residual   : -0.66376999E-05.
   The total correlation energy is -0.631547937460 a.u.
  Convergence information after    36 iterations: 
  Largest element of residual vector : -0.93602691E-05.
  Largest element of DIIS residual   : -0.63989567E-05.
   The total correlation energy is -0.631547979771 a.u.
  Convergence information after    37 iterations: 
  Largest element of residual vector : -0.89244435E-05.
  Largest element of DIIS residual   : -0.65413265E-05.
   The total correlation energy is -0.631547978420 a.u.
  Convergence information after    38 iterations: 
  Largest element of residual vector : -0.91002863E-05.
  Largest element of DIIS residual   : -0.74208643E-05.
   The total correlation energy is -0.631548039555 a.u.
  Convergence information after    39 iterations: 
  Largest element of residual vector : -0.10269929E-04.
  Largest element of DIIS residual   : -0.56739318E-05.
   The total correlation energy is -0.631547867391 a.u.
  Convergence information after    40 iterations: 
  Largest element of residual vector : -0.79545027E-05.
  Largest element of DIIS residual   : -0.27406370E-05.
   The total correlation energy is -0.631547676706 a.u.
  Convergence information after    41 iterations: 
  Largest element of residual vector : -0.38578166E-05.
  Largest element of DIIS residual   :  0.85290915E-06.
   The total correlation energy is -0.631547436877 a.u.
  Convergence information after    42 iterations: 
  Largest element of residual vector : -0.61308392E-06.
  Largest element of DIIS residual   : -0.59039768E-06.
   The total correlation energy is -0.631547379544 a.u.
  Convergence information after    43 iterations: 
  Largest element of residual vector :  0.41894252E-06.
  Largest element of DIIS residual   : -0.33752603E-06.
   The total correlation energy is -0.631547421445 a.u.
  Convergence information after    44 iterations: 
  Largest element of residual vector :  0.27924953E-06.
  Largest element of DIIS residual   :  0.29643363E-06.
   The total correlation energy is -0.631547458393 a.u.
  Convergence information after    45 iterations: 
  Largest element of residual vector :  0.27112800E-06.
  Largest element of DIIS residual   :  0.27178226E-06.
   The total correlation energy is -0.631547466567 a.u.
  Convergence information after    46 iterations: 
  Largest element of residual vector :  0.24865018E-06.
  Largest element of DIIS residual   :  0.24458398E-06.
   The total correlation energy is -0.631547471993 a.u.
  Convergence information after    47 iterations: 
  Largest element of residual vector : -0.29029342E-06.
  Largest element of DIIS residual   : -0.30711954E-06.
   The total correlation energy is -0.631547477816 a.u.
  Convergence information after    48 iterations: 
  Largest element of residual vector : -0.41757422E-06.
  Largest element of DIIS residual   :  0.17445636E-06.
   The total correlation energy is -0.631547462450 a.u.
  Convergence information after    49 iterations: 
  Largest element of residual vector :  0.15979263E-06.
  Largest element of DIIS residual   :  0.96344609E-07.
   The total correlation energy is -0.631547465061 a.u.
  Convergence information after    50 iterations: 
  Largest element of residual vector :  0.87313820E-07.
  Largest element of DIIS residual   :  0.79676753E-07.
   The total correlation energy is -0.631547460099 a.u.
  Convergence information after    51 iterations: 
  Largest element of residual vector :  0.72164958E-07.
  Largest element of DIIS residual   :  0.43540703E-07.
   The total correlation energy is -0.631547456963 a.u.
  Convergence information after    52 iterations: 
  Largest element of residual vector : -0.35250141E-07.
  Largest element of DIIS residual   :  0.27348711E-07.
   The total correlation energy is -0.631547456522 a.u.
  Convergence information after    53 iterations: 
  Largest element of residual vector : -0.21955271E-07.
  Largest element of DIIS residual   : -0.21359153E-07.
   The total correlation energy is -0.631547456231 a.u.
  Convergence information after    54 iterations: 
  Largest element of residual vector : -0.31011024E-07.
  Largest element of DIIS residual   : -0.25103837E-07.
   The total correlation energy is -0.631547456590 a.u.
  Convergence information after    55 iterations: 
  Largest element of residual vector : -0.35259508E-07.
  Largest element of DIIS residual   : -0.35698954E-07.
   The total correlation energy is -0.631547457236 a.u.
  Convergence information after    56 iterations: 
  Largest element of residual vector : -0.49222324E-07.
  Largest element of DIIS residual   : -0.19871460E-07.
   The total correlation energy is -0.631547455724 a.u.
  Convergence information after    57 iterations: 
  Largest element of residual vector : -0.26901459E-07.
  Largest element of DIIS residual   : -0.81245915E-08.
   The total correlation energy is -0.631547454591 a.u.
  Convergence information after    58 iterations: 
  Largest element of residual vector : -0.72958458E-08.
  Largest element of DIIS residual   : -0.77215147E-08.
   The total correlation energy is -0.631547454504 a.u.
  Convergence information after    59 iterations: 
  Largest element of residual vector : -0.69734143E-08.
  Largest element of DIIS residual   : -0.66980302E-08.
   The total correlation energy is -0.631547454420 a.u.
  Convergence information after    60 iterations: 
  Largest element of residual vector : -0.60632031E-08.
  Largest element of DIIS residual   : -0.34368963E-08.
   The total correlation energy is -0.631547454287 a.u.
  Convergence information after    61 iterations: 
  Largest element of residual vector : -0.34795899E-08.
  Largest element of DIIS residual   : -0.28600554E-08.
   The total correlation energy is -0.631547454350 a.u.
  Convergence information after    62 iterations: 
  Largest element of residual vector : -0.35926165E-08.
  Largest element of DIIS residual   : -0.40926572E-08.
   The total correlation energy is -0.631547454560 a.u.
  Convergence information after    63 iterations: 
  Largest element of residual vector : -0.54829788E-08.
  Largest element of DIIS residual   : -0.40546858E-08.
   The total correlation energy is -0.631547454557 a.u.
  Convergence information after    64 iterations: 
  Largest element of residual vector : -0.54285450E-08.
  Largest element of DIIS residual   : -0.17617769E-08.
   The total correlation energy is -0.631547454410 a.u.
  Convergence information after    65 iterations: 
  Largest element of residual vector : -0.22333321E-08.
  Largest element of DIIS residual   : -0.11126653E-08.
   The total correlation energy is -0.631547454354 a.u.
  Convergence information after    66 iterations: 
  Largest element of residual vector : -0.13864039E-08.
  Largest element of DIIS residual   : -0.74762765E-09.
   The total correlation energy is -0.631547454325 a.u.
  Convergence information after    67 iterations: 
  Largest element of residual vector : -0.92224087E-09.
  Largest element of DIIS residual   :  0.75471188E-09.
   The total correlation energy is -0.631547454296 a.u.
  Convergence information after    68 iterations: 
  Largest element of residual vector :  0.69425903E-09.
  Largest element of DIIS residual   :  0.64551437E-09.
   The total correlation energy is -0.631547454303 a.u.
  Convergence information after    69 iterations: 
  Largest element of residual vector :  0.59320009E-09.
  Largest element of DIIS residual   :  0.54821277E-09.
   The total correlation energy is -0.631547454313 a.u.
  Convergence information after    70 iterations: 
  Largest element of residual vector : -0.52971685E-09.
  Largest element of DIIS residual   : -0.45583613E-09.
   The total correlation energy is -0.631547454326 a.u.
  Convergence information after    71 iterations: 
  Largest element of residual vector : -0.64530338E-09.
  Largest element of DIIS residual   : -0.64404942E-09.
   The total correlation energy is -0.631547454340 a.u.
  Convergence information after    72 iterations: 
  Largest element of residual vector : -0.89674435E-09.
  Largest element of DIIS residual   : -0.45608249E-09.
   The total correlation energy is -0.631547454327 a.u.
  Convergence information after    73 iterations: 
  Largest element of residual vector : -0.64894279E-09.
  Largest element of DIIS residual   :  0.22489346E-09.
   The total correlation energy is -0.631547454302 a.u.
  Convergence information after    74 iterations: 
  Largest element of residual vector :  0.19956041E-09.
[...]
 term  0.688022615159531     
 final tnorm  0.768570807359668     
  norm contr. I: |<0|L dT/dx|0>|^2   0.000000000000000E+000
  norm contr. II: <0|[nabla(1+L)e-T][nabla e^T]|0>  0.688022615159531     
  total norm contribution  0.688022615159531     
 oo -9.833621793990555E-003
 vv  -2.20518619970528     
 vo -5.022911793245587E-002
  Correlated perturbed 1-el contribution to DBOC  -2.26524893943173       cm**-1
  SUM_I |dc_I/dx|^2 contribution to DBOC   1.18476277221653       cm**-1
 
 
  The total diagonal Born-Oppenheimer correction (DBOC) is:      0.0089237582 a.u.
  The total diagonal Born-Oppenheimer correction (DBOC) is:       1958.538531 cm-1
 
 Total CC energy including DBOC  -535.176614835166     
 First-order density matrix is being calculated  (Symmetry block 2, perturbation   3)
 Calculation of the contributions of <pq||rs> to dI(i,j)/dx required   1.6 seconds.
 Calculation of the contributions of <pq||rs> to dI(a,b)/dx required   6.3 seconds.
 Calculation of the contributions of <pq||rs> to dI(i,a)/dx required   3.6 seconds.
 First-order Z-vector equations are solved for 1 perturbation.
 Convergence reached after  25 iterations.
        U*G(pq,rs) contribution is being calculated
             (Symmetry block 2, perturbation   3)

 CCSD contribution to force constants 

        0.0000000000        0.0000000000        0.0000000000
        0.0000000000        0.0000000000        0.0000000000
        0.0000000000        0.0000000000        0.0000000000
        0.0000000000        0.0000000000        0.0000000000
        0.0000000000        0.0000000000        0.0000000000
        0.0000000000        0.0000000000        0.0000000000
        0.0000000000        0.0000000000        0.0000000000
        0.0000000000        0.0000000000        0.0000000000
        0.0000000000        0.0000000000        0.0000000000
        0.0000000000        0.0000000000        0.0000000000
        0.0000000000        0.0000000000        0.0000000000
        0.0000000000        0.0000000000        0.0000000000
        0.0000000000        0.0000000000        0.0000000000
        0.0000000000        0.0000000000        0.0000000000
        0.0000000000        0.0000000000        0.0000000000
        0.0000000000        0.0000000000        0.0000000000
        0.0000000000        0.0000000000        0.0000000000
        0.0000000000        0.0000000000        0.0000000000
        0.0000000000        0.0000000000        0.0000000000
        0.0000000000        0.0000000000        0.0000000000
        0.0000000000        0.0000000000        0.0000000000
        0.0000000000        0.0000000000        0.0000000000
        0.0000000000        0.0000000000        0.0000000000
        0.0000000000        0.0000000000        0.0000000000
        0.0000000000        0.0000000000        0.0000000000
        0.0000000000        0.0000000000        0.0000000000
        3.9254119592        0.6093903218       -4.5348022811

 CCSD contribution to dipole derivatives 

        0.0000000000        0.0000000000        0.0000000000
        0.0000000000        0.0000000000        0.0000000000
        0.0000000000        0.0000000000        0.0000000000
        0.0000000000        0.0000000000        0.0000000000
        0.0000000000        0.0000000000        0.0000000000
        0.0000000000        0.0000000000        0.0000000000
        0.0000000000        0.0000000000        0.0000000000
        0.0000000000        0.0000000000        0.0000000000
        0.0000000000        0.0000000000        0.0640527742
 @CHECKOUT-I, Total execution time (CPU/WALL):      799.28/     114.41 seconds.
--executable xsdcc finished with status     0 in      114.48 seconds (walltime).
 --invoking executable--
/home/asmola/.local/bin/xanti
 @GETMEM-I,  Allocated    3814 MB of main memory.
 CCSD MO derivative gammas will be sorted to Mulliken order.
 @CHECKOUT-I, Total execution time (CPU/WALL):        3.22/       1.76 seconds.
--executable xanti finished with status     0 in        1.82 seconds (walltime).
 --invoking executable--
/home/asmola/.local/bin/xbcktrn
 @GETMEM-I,  Allocated    3814 MB of main memory.
 CCSD MO derivative gammas will be transformed to the AO basis.
 @CHECKOUT-I, Total execution time (CPU/WALL):        5.11/       0.68 seconds.
--executable xbcktrn finished with status     0 in        0.74 seconds (walltime).
 --invoking executable--
/home/asmola/.local/bin/xvdint
 @GETMEM-I,  Allocated    3814 MB of main memory.
 One- and two-electron integral derivatives are calculated
 for RHF-CC/MBPT hessians and dipole derivatives.
 Spherical gaussians are used.
  magnet F F
 Evaluation of 2el integral derivatives

                      Two-electron integral gradient
                      ------------------------------

                         O #1 x     0.0000000000
                         O #1 y     0.0000000000
                         H #2 x     0.0000000000
                         H #2 y     0.0000000000
                         CL#3 x     0.0000000000
                         CL#3 y     0.0000000000


 O #1       0.0000000000            0.0000000000           -0.1369106034
 H #2       0.0000000000            0.0000000000            0.0060716391
 CL#3       0.0000000000            0.0000000000            0.1308389643


 Evaluation of 2e integral derivatives required   60.63 seconds.
  contribution to Hessian
        0.0000000000        0.0000000000        0.0000000000
        0.0000000000        0.0000000000        0.0000000000
       -0.1369106034        0.0060716391        0.1308389643
 @CHECKOUT-I, Total execution time (CPU/WALL):       60.73/       9.25 seconds.
--executable xvdint finished with status     0 in        9.31 seconds (walltime).
 --invoking executable--
/home/asmola/.local/bin/xanti
 @GETMEM-I,  Allocated    3814 MB of main memory.
 CCSD MO gammas will be sorted to Mulliken order.
 @CHECKOUT-I, Total execution time (CPU/WALL):        3.74/       2.95 seconds.
--executable xanti finished with status     0 in        2.99 seconds (walltime).
 --invoking executable--
/home/asmola/.local/bin/xbcktrn
 @GETMEM-I,  Allocated    3814 MB of main memory.
 CCSD MO gammas will be transformed to the AO basis.
 @CHECKOUT-I, Total execution time (CPU/WALL):        9.21/       1.23 seconds.
--executable xbcktrn finished with status     0 in        1.26 seconds (walltime).
 --invoking executable--
/home/asmola/.local/bin/xvdint
 @GETMEM-I,  Allocated    3814 MB of main memory.
 One- and two-electron integral derivatives are calculated
 for RHF-CC/MBPT hessians and dipole derivatives.
 Spherical gaussians are used.
  magnet F F

                     Kinetic energy integral gradient
                     --------------------------------

                         O #1 x    -0.4475417631
                         O #1 y    -0.5276885010
                         H #2 x     0.3731719888
                         H #2 y     0.5536013989
                         CL#3 x     0.0743697742
                         CL#3 y    -0.0259128979


 O #1      -0.4475417631           -0.5276885010            0.0000000000
 H #2       0.3731719888            0.5536013989            0.0000000000
 CL#3       0.0743697742           -0.0259128979            0.0000000000



                   Nuclear attraction integral gradient
                   ------------------------------------

                         O #1 x   -18.4471073172
                         O #1 y     5.7917234180
                         H #2 x    -5.1330204958
                         H #2 y    -5.8838881256
                         CL#3 x    23.5801278130
                         CL#3 y     0.0921647076


 O #1     -18.4471073172            5.7917234180            0.0000000000
 H #2      -5.1330204958           -5.8838881256            0.0000000000
 CL#3      23.5801278130            0.0921647076            0.0000000000



                      Reorthonormalization gradient
                      -----------------------------

                         O #1 x     0.0000000000
                         O #1 y     0.0000000000
                         H #2 x     0.0000000000
                         H #2 y     0.0000000000
                         CL#3 x     0.0000000000
                         CL#3 y     0.0000000000


 O #1       0.0000000000            0.0000000000            0.0000000000
 H #2       0.0000000000            0.0000000000            0.0000000000
 CL#3       0.0000000000            0.0000000000            0.0000000000



                     Kinetic energy integral Hessian
                     -------------------------------


           Symmetry 1

           O #1 x      O #1 y      H #2 x      H #2 y      CL#3 x      CL#3 y

 O #1 x   -0.243547
 O #1 y    0.551329    0.227225
 H #2 x    0.383842   -0.549514   -0.373377
 H #2 y   -0.549514   -0.226947    0.562082    0.230860
 CL#3 x   -0.140294   -0.001816   -0.010465   -0.012568    0.150759
 CL#3 y   -0.001816   -0.000278   -0.012568   -0.003913    0.014384    0.004191


           Symmetry 2

           O #1 z      H #2 z      CL#3 z

 O #1 z   -0.697970
 H #2 z    0.623194   -0.627855
 CL#3 z    0.074776    0.004661   -0.079436




           O #1 x      O #1 y      O #1 z      H #2 x      H #2 y      H #2 z

 O #1 x   -0.243547
 O #1 y    0.551329    0.227225
 O #1 z    0.000000    0.000000   -0.697970

 H #2 x    0.383842   -0.549514    0.000000   -0.373377
 H #2 y   -0.549514   -0.226947    0.000000    0.562082    0.230860
 H #2 z    0.000000    0.000000    0.623194    0.000000    0.000000   -0.627855

 CL#3 x   -0.140294   -0.001816    0.000000   -0.010465   -0.012568    0.000000
 CL#3 y   -0.001816   -0.000278    0.000000   -0.012568   -0.003913    0.000000
 CL#3 z    0.000000    0.000000    0.074776    0.000000    0.000000    0.004661


           CL#3 x      CL#3 y      CL#3 z

 CL#3 x    0.150759
 CL#3 y    0.014384    0.004191
 CL#3 z    0.000000    0.000000   -0.079436




                   Nuclear attraction integral Hessian
                   -----------------------------------


           Symmetry 1

           O #1 x      O #1 y      H #2 x      H #2 y      CL#3 x      CL#3 y

 O #1 x  -13.485942
 O #1 y   -2.518106    5.724952
 H #2 x   -4.853100    3.718427    3.941794
 H #2 y    3.728598   -0.224092   -4.613230    0.229446
 CL#3 x   18.339042   -1.200321    0.911306    0.884632  -19.250347
 CL#3 y   -1.210492   -5.500859    0.894803   -0.005354    0.315688    5.506213


           Symmetry 2

           O #1 z      H #2 z      CL#3 z

 O #1 z   13.907613
 H #2 z   -6.239185    6.817858
 CL#3 z   -7.668428   -0.578673    8.247101




           O #1 x      O #1 y      O #1 z      H #2 x      H #2 y      H #2 z

 O #1 x  -13.485942
 O #1 y   -2.518106    5.724952
 O #1 z    0.000000    0.000000   13.907613

 H #2 x   -4.853100    3.718427    0.000000    3.941794
 H #2 y    3.728598   -0.224092    0.000000   -4.613230    0.229446
 H #2 z    0.000000    0.000000   -6.239185    0.000000    0.000000    6.817858

 CL#3 x   18.339042   -1.200321    0.000000    0.911306    0.884632    0.000000
 CL#3 y   -1.210492   -5.500859    0.000000    0.894803   -0.005354    0.000000
 CL#3 z    0.000000    0.000000   -7.668428    0.000000    0.000000   -0.578673


           CL#3 x      CL#3 y      CL#3 z

 CL#3 x  -19.250347
 CL#3 y    0.315688    5.506213
 CL#3 z    0.000000    0.000000    8.247101




                Highest order reorthonormalization Hessian
                ------------------------------------------


           Symmetry 1

           O #1 x      O #1 y      H #2 x      H #2 y      CL#3 x      CL#3 y

 O #1 x    0.000000
 O #1 y    0.000000    0.000000
 H #2 x    0.000000    0.000000    0.000000
 H #2 y    0.000000    0.000000    0.000000    0.000000
 CL#3 x    0.000000    0.000000    0.000000    0.000000    0.000000
 CL#3 y    0.000000    0.000000    0.000000    0.000000    0.000000    0.000000


           Symmetry 2

           O #1 z      H #2 z      CL#3 z

 O #1 z    0.000000
 H #2 z    0.000000    0.000000
 CL#3 z    0.000000    0.000000    0.000000




           O #1 x      O #1 y      O #1 z      H #2 x      H #2 y      H #2 z


           CL#3 x      CL#3 y      CL#3 z




                Electronic contributions to dipole moment
                -----------------------------------------

                               au             Debye

                    x      1.47471918      3.74836291
                    y      0.28442194      0.72292858

  Conversion factor used: 1 a.u. =   2.54174691 Debye 



   Electronic contributions to static part of dipole moment derivatives
   --------------------------------------------------------------------


                     Total dipole moment derivatives
                     -------------------------------


           Symmetry 1
                              Ex             Ey

               O #1 x    -8.51000588    -0.08135142
               O #1 y    -0.29207193    -8.14544453
               H #2 x    -0.39336022     0.13885686
               H #2 y     0.39124096    -0.48559625
               CL#3 x   -17.09663390    -0.05750544
               CL#3 y    -0.09916903   -17.36895922

           Symmetry 2
                              Ez

               O #1 z    -7.88390714
               H #2 z    -0.81355714
               CL#3 z   -17.30253571



                       Ex          Ey          Ez

      O #1    x   -8.510006   -0.081351    0.000000
      O #1    y   -0.292072   -8.145445    0.000000
      O #1    z    0.000000    0.000000   -7.883907

      H #2    x   -0.393360    0.138857    0.000000
      H #2    y    0.391241   -0.485596    0.000000
      H #2    z    0.000000    0.000000   -0.813557

      CL#3    x  -17.096634   -0.057505    0.000000
      CL#3    y   -0.099169  -17.368959    0.000000
      CL#3    z    0.000000    0.000000  -17.302536

 Evaluation of 1e integral derivatives required    0.98 seconds.
 Evaluation of 2el integral derivatives

                      Two-electron integral gradient
                      ------------------------------

                         O #1 x     6.8657536886
                         O #1 y    -2.3832466572
                         H #2 x     2.6017504729
                         H #2 y     2.6555724766
                         CL#3 x    -9.4675041614
                         CL#3 y    -0.2723258194


 O #1       6.8657536886           -2.3832466572            0.0000000000
 H #2       2.6017504729            2.6555724766            0.0000000000
 CL#3      -9.4675041614           -0.2723258194            0.0000000000


 Evaluation of 2e integral derivatives required  147.09 seconds.

                            Molecular gradient
                            ------------------

                         O #1 x     0.2512847453
                         O #1 y     0.1920426534
                         H #2 x    -0.1387508219
                         H #2 y    -0.2210203096
                         CL#3 x    -0.1125339234
                         CL#3 y     0.0289776563


 O #1       0.2512847453            0.1920426534            0.0000000000
 H #2      -0.1387508219           -0.2210203096            0.0000000000
 CL#3      -0.1125339234            0.0289776563            0.0000000000


  Molecular gradient norm 0.426E+00

                            Molecular hessian
                            -----------------


           Symmetry 1

           O #1 x      O #1 y      H #2 x      H #2 y      CL#3 x      CL#3 y

 O #1 x   -0.089380
 O #1 y    5.538773    8.202420
 H #2 x    0.025097   -4.606299    0.299952
 H #2 y   -5.476274   -7.862854    5.851111    7.483587
 CL#3 x    0.064283    0.569787   -0.370719   -0.353588    0.306436
 CL#3 y   -0.062498   -0.339566   -0.014799   -0.002661    0.077297    0.342227


           Symmetry 2

           O #1 z      H #2 z      CL#3 z

 O #1 z    4.004885
 H #2 z   -7.800127    6.619979
 CL#3 z    3.795242    0.607526   -4.402768




           O #1 x      O #1 y      O #1 z      H #2 x      H #2 y      H #2 z

 O #1 x   -0.089380
 O #1 y    5.538773    8.202420
 O #1 z    0.000000    0.000000    4.004885

 H #2 x    0.025097   -4.606299    0.000000    0.299952
 H #2 y   -5.476274   -7.862854    0.000000    5.851111    7.483587
 H #2 z    0.000000    0.000000   -7.800127    0.000000    0.000000    6.619979

 CL#3 x    0.064283    0.569787    0.000000   -0.370719   -0.353588    0.000000
 CL#3 y   -0.062498   -0.339566    0.000000   -0.014799   -0.002661    0.000000
 CL#3 z    0.000000    0.000000    3.795242    0.000000    0.000000    0.607526


           CL#3 x      CL#3 y      CL#3 z

 CL#3 x    0.306436
 CL#3 y    0.077297    0.342227
 CL#3 z    0.000000    0.000000   -4.402768




                           Total dipole moment
                           -------------------

                               au             Debye

                    x     -0.52204051     -1.32689486
                    y     -0.44304663     -1.12611239

  Conversion factor used: 1 a.u. =   2.54174691 Debye 



                     Total dipole moment derivatives
                     -------------------------------


           Symmetry 1
                              Ex             Ey

               O #1 x     0.39155396     0.52225496
               O #1 y     0.36780690     0.12910532
               H #2 x    -0.03230659    -0.06978780
               H #2 y    -0.42172094    -0.02029403
               CL#3 x    -0.35924757    -0.45246724
               CL#3 y     0.05391410    -0.10881134

           Symmetry 2
                              Ez

               O #1 z    -0.19854364
               H #2 z     0.28354985
               CL#3 z    -0.08500616



                       Ex          Ey          Ez

      O #1    x    0.391554    0.522255    0.000000
      O #1    y    0.367807    0.129105    0.000000
      O #1    z    0.000000    0.000000   -0.198544

      H #2    x   -0.032307   -0.069788    0.000000
      H #2    y   -0.421721   -0.020294    0.000000
      H #2    z    0.000000    0.000000    0.283550

      CL#3    x   -0.359248   -0.452467    0.000000
      CL#3    y    0.053914   -0.108811    0.000000
      CL#3    z    0.000000    0.000000   -0.085006

  Molecular gradient does not satisfy rotational invariance condition.
   rotational invariance in yz-plane :        0.0000E+00
   rotational invariance in xz-plane :        0.0000E+00
   rotational invariance in xy-plane :        -.4627E-01
 @CHECKOUT-I, Total execution time (CPU/WALL):      148.08/      20.18 seconds.
--executable xvdint finished with status     0 in       20.23 seconds (walltime).
 --invoking executable--
/home/asmola/.local/bin/xjoda
  @GTFLGS-I, Hessian will be transformed to curvilinear coordinates.
  @GTFLGS-I, Hessian will be transformed to curvilinear coordinates.
  igrd and ihes are                      0                     1
  gradient from JOBARC 
   0.251284745302151   0.192042653365217   0.000000000000000
  -0.138750821893690  -0.221020309639803   0.000000000000000
  -0.112533923408484   0.028977656274580   0.000000000000000
 
  @PROJFCM-I, Projecting force constant matrix onto totally symmetric subspace.
  Largest difference between matrix elements of symmetrized
  and unsymmetrized FCM :     0.0000000000E+00.
 
  Summary of diagonal Born-Oppenheimer correction at the correlated level
  The total diagonal Born-Oppenheimer correction (DBOC) is:      0.0089237582 a.u.
  The total diagonal Born-Oppenheimer correction (DBOC) is:       1958.538531 cm-1
  The total diagonal Born-Oppenheimer correction (DBOC) is:            23.429 kJ/mole
  hellooooooo 
  readis is  F
 
 @CHECKOUT-I, Total execution time (CPU/WALL):        0.01/       0.05 seconds.
--executable xjoda finished with status     0 in        0.09 seconds (walltime).
  The final electronic energy is      -535.176614835166447 a.u. 
  This computation required                         1440.58 seconds (walltime).
