 --invoking executable--
/home/asmola/.local/bin/xjoda


   *************************************************************************
         <<<     CCCCCC     CCCCCC   |||     CCCCCC     CCCCCC   >>>
       <<<      CCC        CCC       |||    CCC        CCC         >>>
      <<<      CCC        CCC        |||   CCC        CCC            >>>
    <<<        CCC        CCC        |||   CCC        CCC              >>>
      <<<      CCC        CCC        |||   CCC        CCC            >>>
       <<<      CCC        CCC       |||    CCC        CCC         >>>
         <<<     CCCCCC     CCCCCC   |||     CCCCCC     CCCCCC   >>>
   *************************************************************************

     ****************************************************************
     * CFOUR Coupled-Cluster techniques for Computational Chemistry *
     ****************************************************************
 

   Department of Chemistry                Institut fuer Physikalische Chemie
   University of Florida                  Universitaet Mainz
   Gainesville, FL 32611, USA             D-55099 Mainz, Germany

   Department of Chemistry                Fakultaet fuer Chemie und Biowiss.
   Johns Hopkins University               Karlsruher Institut fuer Technologie
   Baltimore, MD 21218, USA               D-76131 Karlsruhe, Germany

   Department of Chemistry                Department of Physical Chemistry
   Southern Methodist University          Eotvos Lorand University
   Dallas, TX 75275, USA                  H-1053 Budapest, Hungary

 
                       Version 2.1
 
                     vincent.theory.phys.ucl.ac.uk                     
                     Tue 28 Jan 13:50:43 GMT 2025                      
                     integer*8 version is running
 
********************************************************************************
*                          Input from ZMAT file                                *
********************************************************************************
Hypochlorous acid DBOC calculation                                              
O                                                                               
H 1 ROH                                                                         
CL 1 ROCL 2 A                                                                   
                                                                                
ROH=0.96000000                                                                  
ROCL=1.68300000                                                                 
A=117.50000                                                                     
                                                                                
                                                                                
*CFOUR(CALC=CCSD,BASIS=AUG-PVTZ,SCF_CONV=10                                     
CC_CONV=10,DBOC=ON,MEMORY=500000000)                                            
********************************************************************************
  @GTFLGS-I, Hessian will be transformed to curvilinear coordinates.
    -------------------------------------------------------------------
                    CFOUR Control Parameters 
    -------------------------------------------------------------------
        External           Internal           Value            Units
          Name               Name
    -------------------------------------------------------------------
       ABCDTYPE             IABCDT         STANDARD    [  0]    ***   
       ANHARMONIC           IANHAR         OFF         [  0]    ***   
       ANH_ALGORIT          IANALG         STANDARD    [  0]    ***   
       ANH_DERIVAT          IANDER         SECOND      [  1]    ***   
       ANH_MODE             ANHMOD         VIBRATION   [  0]    ***   
       ANH_STEPSIZ          ICUBST             50000          x 10-6  
       ANH_SYMMETR          IANHSM         ABELIAN     [  0]    ***   
       AO_LADDERS           IAOLAD         SINGLEPASS  [  1]    ***   
       AV_SCF               IAVSCF         OFF         [  0]    ***   
       BASIS                IBASIS         AUG-PVTZ    [ 34]    ***   
       BOTHVECTORS          BOTHVC         OFF         [  0]    ***   
       BOX_POTENT           IPIAB          OFF         [  0]    ***   
       BREIT                IBREIT         OFF         [  0]    ***   
       BRUCK_CONV           IBRTOL          10D-  4             ***   
       BRUECKNER            IBRKNR         OFF         [  0]    ***   
       BUFFERSIZE           IBUFFS              4096            ***   
       CACHE_RECS           ICHREC             10               ***   
       CALCLEVEL            ICLLVL         CCSD        [ 10]    ***   
       CCORBOPT             ICCORB         OFF         [  0]  x 0.01  
       CC_CONV              ICCCNV          10D- 10             ***   
       CC_EXPORDER          ICCEOR              5               ***   
       CC_EXTRAPOL          ICCEXT         DIIS        [  1]    ***   
       CC_GUESS             ICCGES         MP2         [  0]    ***   
       CC_MAXCYC            ICCCYC            100              cycles 
       CC_PROGRAM           ICCPRO         VCC         [  0]    ***   
       CHARGE               ICHRGE              0               ***   
       CHOLESKY             ICHOLE         OFF         [  0]    ***   
       CIS_CONV             ICISTL              5               ***   
       COMM_SIZE            IPSIZE            ***               ***   
       CONSTANT             ICONST         OLD         [  1]    ***   
       CONTINUUM            ICONTU         NONE        [  0]    ***   
       CONTRACTION          ICNTYP         GENERAL     [  1]    ***   
       COORDINATES          ICOORD         INTERNAL    [  0]    ***   
       CPHF_CONVER          ICPHFT          10D- 16             ***   
       CPHF_MAXCYC          ICPHFC             64              cycles 
       CUBIC                ICUBIC         OFF         [  0]    ***   
       CURVILINEAR          ICURVY         ON          [  1]    ***   
       DBOC                 IDBOC          ON          [  1]    ***   
       DCT                  IDCT           OFF         [  0]    ***   
       DERIV_LEV            IDRLVL         SECOND      [  2]    ***   
       DEVMEM_SIZE          IDVMEM          50000000           MByte  
       DIAG_MRCC            IEOMST          10D-  0             ***   
       DIFF_TYPE            IDIFTY         RELAXED     [  0]    ***   
       DIRECT               IDIRCT         OFF         [  0]    ***   
       DROPMO               IDRPMO      NONE         
       ECP                  IECP           OFF         [  0]    ***   
       EIGENVECTOR          IVEC                1               ***   
       EL_ANHARM            IELANH         OFF         [  0]    ***   
       EOMFOLLOW            IEOMSR         ENERGY      [  0]    ***   
       EOMIP                IEOMIP         OFF         [  0]    ***   
       EOMLEVEL             HBARFM         SAME        [  0]    ***   
       EOM_MRCC             IMRCCE         NEW         [  1]    ***   
       EOM_NONIT            EOMNON         OFF         [  0]    ***   
       EOM_NSING            IEOMSI          10D-  0             ***   
       EOM_NSTATES          IMRCCD         DAVIDSON    [  0]    ***   
       EOM_NTRIP            IEOMTR          10D-  0             ***   
       EOM_ORDER            IEXORD         ENERGY      [  0]    ***   
       EOM_PROPSTA          IEOMST              0               ***   
       ESTATE_CONV          IEXTOL          10D-  5             ***   
       ESTATE_DIAG          IEXDIG         ITERATIVE   [  0]    ***   
       ESTATE_LOCK          IESLOC         ON          [  1]    ***   
       ESTATE_MAXC          IEXMXC             40               ***   
       ESTATE_PROP          IEXPRP         OFF         [  0]    ***   
       EVAL_HESS            IRECAL              0            # of cyc.
       EXCITATION           IEXCIT              0               ***   
       EXCITE               IEXCIT         NONE        [  0]    ***   
       EXTERN_POT           IEXPOT         OFF         [  0]    ***   
       FCGRADNEW            IFCGNW         OFF         [  0]    ***   
       FC_FIELD             IFINFC              0             x 10-6  
       FD_CALTYPE           IFDCAL         GRADONLY    [  0]    ***   
       FD_PROJECT           IFDPRJ         OFF         [  1]    ***   
       FD_STEPSIZE          IDISFD              0            10-4 bohr
       FD_USEGROUP          IFDGRP         FULL        [  0]    ***   
       FILE_RECSIZ          IFLREC              4096           words  
       FINITE_PERT          IFIPER              0             x 10-6  
       FIXGEOM              IFIXGM         OFF         [  0]    ***   
       FOCK                 IFOCK          AO          [  1]    ***   
       FREQ_ALGORI          IVIALG         STANDARD    [  0]    ***   
       FROZEN_CORE          IFROCO         OFF         [  0]    ***   
       GAMMA_ABCD           IGABCD         STORE       [  0]    ***   
       GAMMA_ABCI           IGABCI         STORE       [  0]    ***   
       GENBAS_1             IGNBS1              0               ***   
       GENBAS_2             IGNBS2              0               ***   
       GENBAS_3             IGNBS3              0               ***   
       GENBAS_4             IGNBS4              0               ***   
       GEO_CONV             ICONTL              5              H/bohr 
       GEO_MAXCYC           IOPTCY             50               ***   
       GEO_MAXSTEP          IMXSTP            300            millibohr
       GEO_METHOD           INR            SINGLE_POINT[  5]    ***   
       GIAO                 IGIAO          OFF         [  1]    ***   
       GIMIC                IGIMIC         OFF         [  0]    ***   
       GRID                 IGRID          OFF         [  0]    ***   
       GRID_ALGO            IGALGO         SERIAL      [  0]    ***   
       GUESS                IGUESS         MOREAD      [  0]    ***   
       HBAR                 IHBAR          OFF         [  0]    ***   
       HESS_TYPE            IHESTP         SCF         [  0]    ***   
       HF2_FILE             IHF2Fl         USE         [  1]    ***   
       HFSTABILITY          ISTABL         OFF         [  0]    ***   
       INCORE               INCORE         OFF         [  0]    ***   
       INPUT_MRCC           IMRCC          ON          [  1]    ***   
       INTEGRALS            INTTYP         VMOL        [  1]    ***   
       JODA_PRINT           IJPRNT              0               ***   
       KEYWORD_OUT          IDMPKW         NO          [  0]    ***   
       LINDEP_TOL           ILINDP              8               ***   
       LINEQ_CONV           IZTACN          10D-  7           cycles  
       LINEQ_EXPOR          ILMAXD              5               ***   
       LINEQ_MAXCY          ILMAXC            100               ***   
       LINEQ_TYPE           ILTYPE         DIIS        [  1]    ***   
       LOCK_ORBOCC          ILOCOC         OFF         [  0]    ***   
       MEMORY_SIZE          IMEMSZ         500000000           words  
       MEM_UNIT             IMEMU          INTEGERWORDS[  0]    ***   
       MRCC                 IMRCCC         OFF         [  0]    ***   
       MULTIPLICTY          IMULTP              1               ***   
       NACOUPLING           IVCOUP         OFF         [  0]    ***   
       NEGEVAL              IDIE           ABORT       [  0]    ***   
       NEWNORM              INEWNO         OFF         [  0]    ***   
       NON-HF               INONHF         OFF         [  0]    ***   
       NTOP_TAMP            ITOPT2             15               ***   
       NUC_MODEL            INUCMO         POINT       [  0]    ***   
       OCCUPATION           IOCCU   ESTIMATED BY SCF 
       OPEN-SHELL           IOPEN          SPIN-ORBITAL[  0]    ***   
       OPTVIB               IOPTVB         OFF         [  0]    ***   
       ORBITALS             IORBTP         STANDARD    [  0]    ***   
       PARALLEL             IPARAL         ON          [  1]    ***   
       PARA_INT             IPINTS         ON          [  1]    ***   
       PARA_PRINT           IPPRIN              0               ***   
       PERT_ORB             IPTORB         STANDARD    [  0]    ***   
       POINTS               IGRDFD              0               ***   
       PRINT                IPRNT               0               ***   
       PROPS                IPROPS         OFF         [  0]    ***   
       PROP_INTEGR          IINTYP         INTERNAL    [  0]    ***   
       PSI                  IPSI           OFF         [  0]    ***   
       QC_ALG               IQCALG         FLM         [  0]    ***   
       QC_LINALG            IQCLIN         TRIDIAG     [  2]    ***   
       QC_MAXCYC            IQCMAX          10D-100           cycles  
       QC_MAXSCFCY          IQCMSC          10D- 15           cycles  
       QC_RTRUST            IQCRTR          10D-  0           x 10-3  
       QC_SKIPSCF           IQCSKI         OFF         [  0]    ***   
       QC_START             IQCSTA          10D-  1             ***   
       QRHFGUESS            IQGUES         OFF         [  0]    ***   
       QUARTIC              IQUART         OFF         [  0]    ***   
       RAMAN_INT            IRAMIN         OFF         [  0]    ***   
       RAMAN_ORB            IRAMRE         UNRELAXED   [  0]    ***   
       RDO                  IRDOFM         ON          [  1]    ***   
       REDUCE_REPR          REDREP         Ir          [  0]    ***   
       REFERENCE            IREFNC         RHF         [  0]    ***   
       RELATIVIST           IRELAT         OFF         [  0]    ***   
       RELAX_DENS           IRDENS         ON          [  1]    ***   
       RESET_FLAGS          IRESET         OFF         [  0]    ***   
       RESTART_CC           ICCRES         OFF         [  0]    ***   
       ROT_EVEC             ROTVEC              0               ***   
       SAVE_INTS            ISVINT         OFF         [  0]    ***   
       SCALE_ON             ISTCRT              0               ***   
       SCF_CONV             ISCFCV          10D- 10             ***   
       SCF_DAMPING          IDAMP               0             x 10-3  
       SCF_EXPORDE          IRPPOR              6               ***   
       SCF_EXPSTAR          IRPPLS              8               ***   
       SCF_EXTRAPO          IRPP           ON          [  1]    ***   
       SCF_MAXCYC           ISCFCY            150              cycles 
       SCF_NOSTOP           ISCFST         OFF         [  0]    ***   
       SCF_PRINT            ISCFPR              0               ***   
       SCF_PROG             ISCFPR         SCF         [  0]    ***   
       SD_FIELD             IFINSD              0             x 10-6  
       SOPERT               IPERSO         OFF         [  0]    ***   
       SPHERICAL            IDFGHI         ON          [  1]    ***   
       SPINORBIT            ISOCAL         OFF         [  0]    ***   
       SPINROTATIO          ISRCON         OFF         [  0]    ***   
       SPIN_FLIP            ISPFLP         OFF         [  0]    ***   
       SPIN_ORBIT           ISPORB         OFF         [  0]    ***   
       SPIN_SCAL            ISCSMP         OFF         [  0]    ***   
       STEEPSCALE           ISTPSC              1000          x 10-3  
       SUBGROUP             ISUBGP         DEFAULT     [  0]    ***   
       SUBGRPAXIS           ISBXYZ         X           [  0]    ***   
       SYMMETRY             ISYM           ON          [  0]    ***   
       SYM_CHECK            ISYMCK         OVERRIDE    [  1]    ***   
       T3_EXTRAPOL          IT3EXT         OFF         [  0]    ***   
       T4_EXTRAPOL          IT4EXP         OFF         [  0]    ***   
       TAMP_SUM             IEVERY              5               ***   
       TESTSUITE            ITESTS         OFF         [  0]    ***   
       THERMOCH             ITHERM         OFF         [  0]    ***   
       TOL_CHOLESK          ITOLCH          10D-  4             ***   
       TRANGRAD             IRESRM         OFF         [  0]    ***   
       TRANS_INV            ITRAIN         IGNORE      [  1]    ***   
       TREAT_PERT           ITREAT         SIMULTANEOUS[  0]    ***   
       TRIP_ALGORI          ITRALG         NORMAL      [  0]    ***   
       UIJ_THRESHO          IUIJTH              1               ***   
       UNITS                IUNITS         ANGSTROM    [  0]    ***   
       UNOS                 IUNOS          OFF         [  0]    ***   
       UPDATE_HESS          IHUPDT         ON          [  1]    ***   
       VIBPHASE             ISETPH         STANDARD    [  0]    ***   
       VIBRATION            IVIB           ANALYTIC    [  1]    ***   
       VIB_ALGORIT          IGEALG         STANDARD    [  0]    ***   
       VNATORB              IVNORB         OFF         [  0]    ***   
       VTRAN                IVTRAN         FULL/PARTIAL[  0]    ***   
       XFIELD               IXEFLD              0             x 10-6  
       XFORM_TOL            IXFTOL          10D- 11             ***   
       YFIELD               IYEFLD              0             x 10-6  
       ZFIELD               IZEFLD              0             x 10-6  
       ZSCALE_EXP           IZEXPS         OFF         [  0]    ***   
    -------------------------------------------------------------------
   3 entries found in Z-matrix 
   Job Title : Hypochlorous acid DBOC calculation                                              
   There are  3 unique internal coordinates.
   Of these,  0 will be optimized.
   User supplied Z-matrix: 
--------------------------------------------------------------------------------
       SYMBOL    BOND      LENGTH    ANGLE     ANGLE     DIHED     ANGLE
                  TO      (ANGST)    WRT      (DEG)      WRT      (DEG)
--------------------------------------------------------------------------------
        O    
        H          1         ROH  
        CL         1         ROCL       2        A    
                  *Initial values for internal coordinates* 
                      Name             Value
                        ROH             0.9600000000
                        ROCL            1.6830000000
                        A             117.5000000000
--------------------------------------------------------------------------------
   Rotational constants (in cm-1): 
          0.4910912562             0.5007440184            25.4757140277
   Rotational constants (in MHz): 
      14722.5475415705         15011.9301122958        763742.7997652476
********************************************************************************
   The full molecular point group is C s .
   The largest Abelian subgroup of the full molecular point group is C s .
   The computational point group is C s .
********************************************************************************
--------------------------------------------------------------------------------
   Analysis of internal coordinates specified by Z-matrix 
--------------------------------------------------------------------------------
   *The nuclear repulsion energy is   51.099210753619680 a.u.
   *There are   3 degrees of freedom within the tot. symm. molecular subspace.
   *Z-matrix requests optimization of   0 coordinates.
   *The optimization is constrained.
   *The following   3 parameters can have non-zero 
    derivatives within the totally symmetric subspace:
             A    [ 3]  ROH  [ 1]  ROCL [ 2]
   *The following   0 parameters are to be optimized:

   *The following coordinates must be varied in an  unconstrained optimization.
             A    [ 3]  ROH  [ 1]  ROCL [ 2]
--------------------------------------------------------------------------------


 ----------------------------------------------------------------
         Coordinates used in calculation (QCOMP) 
 ----------------------------------------------------------------
 Z-matrix   Atomic            Coordinates (in bohr)
  Symbol    Number           X              Y              Z
 ----------------------------------------------------------------
     O         8        -2.12064089     0.11778863    -0.00000000
     H         1        -3.02324575    -1.45586926     0.00000000
     CL       17         1.05712283    -0.01191797     0.00000000
 ----------------------------------------------------------------
 
   Interatomic distance matrix (Angstroms) 
 
                 O             H             CL   
                [ 1]        [ 2]        [ 3]
  O    [ 1]     0.00000
  H    [ 2]     0.96000     0.00000
  CL   [ 3]     1.68300     2.29045     0.00000
 rotcon2
   Rotational constants (in cm-1): 
         25.4757140277             0.5007440184             0.4910912562
   Rotational constants (in MHz): 
     763742.7997652639         15011.9301122958         14722.5475415705
  ECPDATA file not present.   Using default ECPDATA. 
  @GTFLGS-I, Hessian will be transformed to curvilinear coordinates.
  There are  124 basis functions.
 @CHECKOUT-I, Total execution time (CPU/WALL):        0.24/       0.35 seconds.
--executable xjoda finished with status     0 in        0.39 seconds (walltime).
 --invoking executable--
/home/asmola/.local/bin/xvmol
 SERIAL VERSION OF MOLECULE STARTED
********************************************************************************
                    INPUT FROM MOL FILE
********************************************************************************
INTGRL        1    0    1    0    0    0    0    0    0                         
         *** CFOUR Program System (Release V0.1) ***                            
Hypochlorous acid DBOC calculation                                              
    3    1 Z          0.10E-08              0    0                              
   9999.00      3.00                                                            
          8.00000000    1    4    1    1    1    1                              
O #1  -2.120640887676306   0.117788634199983  -0.000000000000001                
   11    5                                                                      
   15330.0000000000       5.080000000000000E-004 -1.150000000000000E-004        
  0.000000000000000E+000  0.000000000000000E+000  0.000000000000000E+000        
   2299.00000000000       3.929000000000000E-003 -8.950000000000000E-004        
  0.000000000000000E+000  0.000000000000000E+000  0.000000000000000E+000        
   522.400000000000       2.024300000000000E-002 -4.636000000000000E-003        
  0.000000000000000E+000  0.000000000000000E+000  0.000000000000000E+000        
   147.300000000000       7.918100000000000E-002 -1.872400000000000E-002        
  0.000000000000000E+000  0.000000000000000E+000  0.000000000000000E+000        
   47.5500000000000       0.230687000000000      -5.846300000000000E-002        
  0.000000000000000E+000  0.000000000000000E+000  0.000000000000000E+000        
   16.7600000000000       0.433118000000000      -0.136463000000000             
  0.000000000000000E+000  0.000000000000000E+000  0.000000000000000E+000        
   6.20700000000000       0.350260000000000      -0.175740000000000             
  0.000000000000000E+000  0.000000000000000E+000  0.000000000000000E+000        
   1.75200000000000       4.272800000000000E-002  0.160934000000000             
   1.00000000000000       0.000000000000000E+000  0.000000000000000E+000        
  0.688200000000000      -8.154000000000000E-003  0.603418000000000             
  0.000000000000000E+000  0.000000000000000E+000  0.000000000000000E+000        
  0.238400000000000       2.381000000000000E-003  0.378765000000000             
  0.000000000000000E+000   1.00000000000000       0.000000000000000E+000        
  7.376000000000001E-002  0.000000000000000E+000  0.000000000000000E+000        
  0.000000000000000E+000  0.000000000000000E+000   1.00000000000000             
    6    4                                                                      
   34.4600000000000       1.592800000000000E-002  0.000000000000000E+000        
  0.000000000000000E+000  0.000000000000000E+000                                
   7.74900000000000       9.974000000000000E-002  0.000000000000000E+000        
  0.000000000000000E+000  0.000000000000000E+000                                
   2.28000000000000       0.310492000000000       0.000000000000000E+000        
  0.000000000000000E+000  0.000000000000000E+000                                
  0.715600000000000       0.491026000000000        1.00000000000000             
  0.000000000000000E+000  0.000000000000000E+000                                
  0.214000000000000       0.336337000000000       0.000000000000000E+000        
   1.00000000000000       0.000000000000000E+000                                
  5.974000000000000E-002  0.000000000000000E+000  0.000000000000000E+000        
  0.000000000000000E+000   1.00000000000000                                     
    3    3                                                                      
   2.31400000000000        1.00000000000000       0.000000000000000E+000        
  0.000000000000000E+000                                                        
  0.645000000000000       0.000000000000000E+000   1.00000000000000             
  0.000000000000000E+000                                                        
  0.214000000000000       0.000000000000000E+000  0.000000000000000E+000        
   1.00000000000000                                                             
    2    2                                                                      
   1.42800000000000        1.00000000000000       0.000000000000000E+000        
  0.500000000000000       0.000000000000000E+000   1.00000000000000             
          1.00000000    1    3    1    1    1                                   
H #2  -3.023245752129030  -1.455869264412181   0.000000000000004                
    6    4                                                                      
   33.8700000000000       6.068000000000000E-003  0.000000000000000E+000        
  0.000000000000000E+000  0.000000000000000E+000                                
   5.09500000000000       4.530800000000000E-002  0.000000000000000E+000        
  0.000000000000000E+000  0.000000000000000E+000                                
   1.15900000000000       0.202822000000000       0.000000000000000E+000        
  0.000000000000000E+000  0.000000000000000E+000                                
  0.325800000000000       0.503903000000000        1.00000000000000             
  0.000000000000000E+000  0.000000000000000E+000                                
  0.102700000000000       0.383421000000000       0.000000000000000E+000        
   1.00000000000000       0.000000000000000E+000                                
  2.526000000000000E-002  0.000000000000000E+000  0.000000000000000E+000        
  0.000000000000000E+000   1.00000000000000                                     
    3    3                                                                      
   1.40700000000000        1.00000000000000       0.000000000000000E+000        
  0.000000000000000E+000                                                        
  0.388000000000000       0.000000000000000E+000   1.00000000000000             
  0.000000000000000E+000                                                        
  0.102000000000000       0.000000000000000E+000  0.000000000000000E+000        
   1.00000000000000                                                             
    2    2                                                                      
   1.05700000000000        1.00000000000000       0.000000000000000E+000        
  0.247000000000000       0.000000000000000E+000   1.00000000000000             
         17.00000000    1    4    1    1    1    1                              
CL#3   1.057122834716948  -0.011917967666154   0.000000000000000                
   16    6                                                                      
   456100.000000000       4.929700000000000E-005 -1.383040000000000E-005        
  0.000000000000000E+000  4.185460000000000E-006  0.000000000000000E+000        
  0.000000000000000E+000                                                        
   68330.0000000000       3.830290000000000E-004 -1.072790000000000E-004        
  0.000000000000000E+000  3.243950000000000E-005  0.000000000000000E+000        
  0.000000000000000E+000                                                        
   15550.0000000000       2.008540000000000E-003 -5.650830000000000E-004        
  0.000000000000000E+000  1.711050000000000E-004  0.000000000000000E+000        
  0.000000000000000E+000                                                        
   4405.00000000000       8.385580000000000E-003 -2.361350000000000E-003        
  0.000000000000000E+000  7.141760000000000E-004  0.000000000000000E+000        
  0.000000000000000E+000                                                        
   1439.00000000000       2.947030000000000E-002 -8.458860000000000E-003        
  0.000000000000000E+000  2.567050000000000E-003  0.000000000000000E+000        
  0.000000000000000E+000                                                        
   520.400000000000       8.783249999999999E-002 -2.596380000000000E-002        
  0.000000000000000E+000  7.885520000000000E-003  0.000000000000000E+000        
  0.000000000000000E+000                                                        
   203.100000000000       0.211473000000000      -6.863619999999999E-002        
  0.000000000000000E+000  2.108670000000000E-002  0.000000000000000E+000        
  0.000000000000000E+000                                                        
   83.9600000000000       0.365364000000000      -0.141874000000000             
  0.000000000000000E+000  4.422640000000000E-002  0.000000000000000E+000        
  0.000000000000000E+000                                                        
   36.2000000000000       0.340884000000000      -0.199319000000000             
  0.000000000000000E+000  6.516700000000000E-002  0.000000000000000E+000        
  0.000000000000000E+000                                                        
   15.8300000000000       0.102133000000000      -1.956620000000000E-002        
  0.000000000000000E+000  6.030120000000000E-003  0.000000000000000E+000        
  0.000000000000000E+000                                                        
   6.33400000000000       3.116750000000000E-003  0.499741000000000             
  0.000000000000000E+000 -0.206495000000000       0.000000000000000E+000        
  0.000000000000000E+000                                                        
   2.69400000000000       1.057510000000000E-003  0.563736000000000             
  0.000000000000000E+000 -0.405871000000000       0.000000000000000E+000        
  0.000000000000000E+000                                                        
  0.976800000000000      -3.780000000000000E-004  7.903250000000001E-002        
   1.00000000000000       7.595580000000000E-002  0.000000000000000E+000        
  0.000000000000000E+000                                                        
  0.431300000000000       1.561360000000000E-004 -8.350910000000000E-003        
  0.000000000000000E+000  0.725661000000000       0.000000000000000E+000        
  0.000000000000000E+000                                                        
  0.162500000000000      -5.141260000000000E-005  2.324560000000000E-003        
  0.000000000000000E+000  0.394423000000000        1.00000000000000             
  0.000000000000000E+000                                                        
  5.910000000000000E-002  0.000000000000000E+000  0.000000000000000E+000        
  0.000000000000000E+000  0.000000000000000E+000  0.000000000000000E+000        
   1.00000000000000                                                             
   10    5                                                                      
   663.300000000000       2.404480000000000E-003  0.000000000000000E+000        
 -6.521450000000000E-004  0.000000000000000E+000  0.000000000000000E+000        
   156.800000000000       1.921480000000000E-002  0.000000000000000E+000        
 -5.194450000000000E-003  0.000000000000000E+000  0.000000000000000E+000        
   49.9800000000000       8.850970000000000E-002  0.000000000000000E+000        
 -2.469380000000000E-002  0.000000000000000E+000  0.000000000000000E+000        
   18.4200000000000       0.256020000000000       0.000000000000000E+000        
 -7.281670000000000E-002  0.000000000000000E+000  0.000000000000000E+000        
   7.24000000000000       0.436927000000000       0.000000000000000E+000        
 -0.134030000000000       0.000000000000000E+000  0.000000000000000E+000        
   2.92200000000000       0.350334000000000       0.000000000000000E+000        
 -9.477420000000000E-002  0.000000000000000E+000  0.000000000000000E+000        
   1.02200000000000       5.854950000000000E-002   1.00000000000000             
  0.262289000000000       0.000000000000000E+000  0.000000000000000E+000        
  0.381800000000000      -4.584230000000000E-003  0.000000000000000E+000        
  0.564667000000000       0.000000000000000E+000  0.000000000000000E+000        
  0.130100000000000       2.269700000000000E-003  0.000000000000000E+000        
  0.341250000000000        1.00000000000000       0.000000000000000E+000        
  4.190000000000000E-002  0.000000000000000E+000  0.000000000000000E+000        
  0.000000000000000E+000  0.000000000000000E+000   1.00000000000000             
    4    4                                                                      
   4.61000000000000        1.00000000000000       0.000000000000000E+000        
  0.000000000000000E+000  0.000000000000000E+000                                
   1.01100000000000       0.000000000000000E+000   1.00000000000000             
  0.000000000000000E+000  0.000000000000000E+000                                
  0.339000000000000       0.000000000000000E+000  0.000000000000000E+000        
   1.00000000000000       0.000000000000000E+000                                
  0.130000000000000       0.000000000000000E+000  0.000000000000000E+000        
  0.000000000000000E+000   1.00000000000000                                     
    2    2                                                                      
  0.706000000000000        1.00000000000000       0.000000000000000E+000        
  0.312000000000000       0.000000000000000E+000   1.00000000000000             
FINISH                                                                          
 
********************************************************************************
 ONE- AND TWO-ELECTRON INTEGRALS OVER SYMMETRY-ADAPTED AOS ARE CALCULATED.

  SPHERICAL HARMONICS ARE USED.
  
  INTEGRALS LESS THAN  0.10E-13 ARE NEGLECTED.

  NUCLEAR REPULSION ENERGY :   51.0992107536 A.U.
  @MOLECU-I, ONE ELECTRON INTEGRALS (CPU/WALL):        0.04/       0.05 SECONDS.
  @TWOEL-I,    5908197 INTEGRALS OF SYMMETRY TYPE  I I I I
  @TWOEL-I,    5650169 INTEGRALS OF SYMMETRY TYPE  I J I J
  @TWOEL-I,    2920886 INTEGRALS OF SYMMETRY TYPE  I I J J
  @TWOEL-I, TOTAL NUMBER OF 2-E INTEGRALS   14479252.
  @MOLECU-I, TWO ELECTRON INTEGRALS (CPU/WALL):       36.97/       5.28 SECONDS.
 @CHECKOUT-I, Total execution time (CPU/WALL):       37.02/       5.35 seconds.

Running with 14 threads/proc

--executable xvmol finished with status     0 in        5.39 seconds (walltime).
 --invoking executable--
/home/asmola/.local/bin/xvmol2ja
 @GETMEM-I,  Allocated    3814 MB of main memory.
 @CHECKOUT-I, Total execution time (CPU/WALL):        0.10/       0.03 seconds.
--executable xvmol2ja finished with status     0 in        0.07 seconds (walltime).
 --invoking executable--
/home/asmola/.local/bin/xvscf
  There are  124 functions in the AO basis.

  There are 2 irreducible representations.

       Irrep        # of functions
         1                 82
         2                 42


  Parameters for SCF calculation: 
        SCF reference function:  RHF  
  Maximum number of iterations:  150
     Full symmetry point group: C s 
     Computational point group: C s 
        Initial density matrix: MOREAD                 
     SCF convergence tolerance: 10**(-10)
  DIIS convergence acceleration:  ON
          Latest start for DIIS:   8
                     DIIS order:   6

  Memory information:     774068 words required.
  Fock matrices are constructed from AO integral file.
 @GETMEM-I,  Allocated       5 MB of main memory.
  Initialization and symmetry analysis required      0.001 seconds.

  @INITGES-I, Occupancies from core Hamiltonian:

          Alpha population by irrep:  10    3
           Beta population by irrep:  10    3


 total no. of electrons in initial guess :  0.000000000000000E+000
  --------------------------------------------------------------------
  Iteration         Total Energy            Largest Density Difference
  --------------------------------------------------------------------
       0            51.099210753619666              0.0000000000D+00
   current occupation vector 
    10  3
    10  3
       1          -414.705400093156925              0.1576947883D+02
   current occupation vector 
    10  3
    10  3
       2          -337.826736658337893              0.1576539293D+02
   current occupation vector 
    10  3
    10  3
       3          -435.051128946354481              0.1056480038D+02
   current occupation vector 
    10  3
    10  3
       4          -335.946077307959285              0.1056571622D+02
   current occupation vector 
    10  3
    10  3
       5          -435.354446495022444              0.1050855772D+02
   current occupation vector 
    10  3
    10  3
       6          -335.908464960093625              0.1050856609D+02
   current occupation vector 
    10  3
    10  3
       7          -435.364558364993115              0.1050665505D+02
   current occupation vector 
    10  3
    10  3
       8          -335.907330033393862              0.1050665520D+02
   current occupation vector 
    10  3
    10  3
       9          -471.991972298583505              0.7897408087D+01
   current occupation vector 
    10  3
    10  3
      10          -485.876902003877376              0.2550988436D+01
   current occupation vector 
    10  3
    10  3
      11          -514.997307096106510              0.2310052056D+01
   current occupation vector 
    11  2
    11  2
      12          -530.227294434788632              0.9834461300D+00
   current occupation vector 
    11  2
    11  2
      13          -533.563034119726012              0.6883604288D+00
   current occupation vector 
    11  2
    11  2
      14          -534.470158193239740              0.5361387253D+00
   current occupation vector 
    11  2
    11  2
      15          -534.529409634841500              0.4654936422D+00
   current occupation vector 
    11  2
    11  2
      16          -534.544715798440507              0.1075650268D+00
   current occupation vector 
    11  2
    11  2
      17          -534.551804805870233              0.1250231175D+00
   current occupation vector 
    11  2
    11  2
      18          -534.554303302137100              0.7546096322D-01
   current occupation vector 
    11  2
    11  2
      19          -534.554412438831037              0.1960054330D-01
   current occupation vector 
    11  2
    11  2
      20          -534.554426886279657              0.4786775798D-02
   current occupation vector 
    11  2
    11  2
      21          -534.554428676628731              0.1365965119D-02
   current occupation vector 
    11  2
    11  2
      22          -534.554429022688964              0.8161009947D-03
   current occupation vector 
    11  2
    11  2
      23          -534.554429035618227              0.1820928105D-03
   current occupation vector 
    11  2
    11  2
      24          -534.554429037069212              0.5298051080D-04
   current occupation vector 
    11  2
    11  2
      25          -534.554429037214163              0.1494566216D-04
   current occupation vector 
    11  2
    11  2
      26          -534.554429037229966              0.6723152006D-05
   current occupation vector 
    11  2
    11  2
      27          -534.554429037236446              0.1770967311D-05
   current occupation vector 
    11  2
    11  2
      28          -534.554429037234513              0.4831526659D-06
   current occupation vector 
    11  2
    11  2
      29          -534.554429037233376              0.7579564754D-07
   current occupation vector 
    11  2
    11  2
      30          -534.554429037234172              0.6718950707D-07
   current occupation vector 
    11  2
    11  2
      31          -534.554429037234513              0.3095757384D-07
   current occupation vector 
    11  2
    11  2
      32          -534.554429037236673              0.4857616753D-08
   current occupation vector 
    11  2
    11  2
      33          -534.554429037237014              0.4070288773D-08
   current occupation vector 
    11  2
    11  2
      34          -534.554429037235877              0.1219243373D-08
   current occupation vector 
    11  2
    11  2
      35          -534.554429037234286              0.2994915427D-09
   current occupation vector 
    11  2
    11  2
      36          -534.554429037236446              0.3019721140D-09
   current occupation vector 
    11  2
    11  2
      37          -534.554429037233604              0.1358334556D-09
   current occupation vector 
    11  2
    11  2

  SCF has converged.

 Density matrix saved to file den.dat
 total electron number:   26.0000000000000     
     E(SCF)=      -534.554429037233376              0.9063166884D-10


  Final occupancies:

     Alpha population by irrep:  11    2
      Beta population by irrep:  11    2


  Eigenvector printing suppressed.

 @PUTMOS-I, Writing converged MOs to NEWMOS. 
 @PUTMOS-I, Symmetry   1 Full Blocks 20 Partial Blocksize   2
 @PUTMOS-I, Symmetry   2 Full Blocks 10 Partial Blocksize   2
 @PUTFOCK-I, Writing converged Fock matrix to NEWFOCK. 
 @PUTFOCK-I, Symmetry   1 Full Blocks 20 Partial Blocksize   2
 @PUTFOCK-I, Symmetry   2 Full Blocks 10 Partial Blocksize   2


 
  ORBITAL EIGENVALUES (ALPHA)  (1H = 27.2113834 eV)

       MO #        E(hartree)               E(eV)           FULLSYM    COMPSYM
       ----   --------------------   --------------------   -------   ---------
    1     1        -104.9124118586       -2854.8118625022     A'        A'  (1)
    2     2         -20.6595950039        -562.1761605388     A'        A'  (1)
    3     3         -10.6295910533        -289.2458775377     A'        A'  (1)
    4    83          -8.0944885429        -220.2622311690     A''       A'' (2)
    5     4          -8.0938751956        -220.2455411395     A'        A'  (1)
    6     5          -8.0904355937        -220.1519448131     A'        A'  (1)
    7     6          -1.4298679227         -38.9086842552     A'        A'  (1)
    8     7          -1.0792301070         -29.3673442194     A'        A'  (1)
    9     8          -0.7591533643         -20.6576132556     A'        A'  (1)
   10     9          -0.6672417786         -18.1565718586     A'        A'  (1)
   11    84          -0.5259212667         -14.3110452262     A''       A'' (2)
   12    10          -0.4827498314         -13.1362907489     A'        A'  (1)
   13    11          -0.2762556133          -7.5172974094     A'        A'  (1)
  +++++++++++++++++++++++++++++++++++++++++++++++++++++++++++++++++++++++++++++
   14    85          -0.0965996660          -2.6286105490     A''       A'' (2)
   15    12           0.0285001629           0.7755288591     A'        A'  (1)
   16    13           0.1050525085           2.8586240862     A'        A'  (1)
   17    86           0.1111741710           3.0252029914     A''       A'' (2)
   18    14           0.1133491955           3.0843884179     A'        A'  (1)
   19    15           0.1457751175           3.9667426130     A'        A'  (1)
   20    16           0.1668721427           4.5408218537     A'        A'  (1)
   21    17           0.1690953431           4.6013182125     A'        A'  (1)
   22    87           0.1822383710           4.9589581843     A''       A'' (2)
   23    18           0.2393299578           6.5124992415     A'        A'  (1)
   24    88           0.2535590701           6.8996930704     A''       A'' (2)
   25    19           0.2990116415           8.1365204188     A'        A'  (1)
   26    20           0.3089472092           8.4068809591     A'        A'  (1)
   27    89           0.3616031016           9.8397206350     A''       A'' (2)
   28    21           0.3782496331          10.2926957873     A'        A'  (1)
   29    90           0.4114729357          11.1967478134     A''       A'' (2)
   30    22           0.4146169063          11.2822996003     A'        A'  (1)
   31    23           0.4393783465          11.9560926445     A'        A'  (1)
   32    24           0.4814838665          13.1018420919     A'        A'  (1)
   33    91           0.5978260852          16.2676748112     A''       A'' (2)
   34    25           0.6173962705          16.8002066252     A'        A'  (1)
   35    26           0.6669535426          18.1487285588     A'        A'  (1)
   36    27           0.6869398953          18.6925848639     A'        A'  (1)
   37    92           0.7000160213          19.0484043408     A''       A'' (2)
   38    28           0.7184446065          19.5498716397     A'        A'  (1)
   39    93           0.7452083339          20.2781496871     A''       A'' (2)
   40    29           0.7802361431          21.2313048324     A'        A'  (1)
   41    30           0.8352570870          22.7285008308     A'        A'  (1)
   42    94           0.8440191052          22.9669274695     A''       A'' (2)
   43    95           0.8752207780          23.8159681490     A''       A'' (2)
   44    31           0.8858283026          24.1046135673     A'        A'  (1)
   45    32           0.9086707209          24.7261873706     A'        A'  (1)
   46    33           0.9174687442          24.9655937561     A'        A'  (1)
   47    96           0.9188102403          25.0020977214     A''       A'' (2)
   48    34           0.9532227657          25.9385101420     A'        A'  (1)
   49    35           0.9777915009          26.6070594152     A'        A'  (1)
   50    97           1.0053143850          27.3559951672     A''       A'' (2)
   51    36           1.0098269139          27.4787873220     A'        A'  (1)
   52    98           1.1157312591          30.3605910637     A''       A'' (2)
   53    37           1.1303625653          30.7587291449     A'        A'  (1)
   54    99           1.1968657258          32.5683721423     A''       A'' (2)
   55    38           1.2041603055          32.7668677492     A'        A'  (1)
   56    39           1.2705814995          34.5742803232     A'        A'  (1)
   57    40           1.3318685270          36.2419851267     A'        A'  (1)
   58   100           1.3600991700          37.0101799775     A''       A'' (2)
   59    41           1.4076123075          38.3030781768     A'        A'  (1)
   60   101           1.5047086161          40.9452030588     A''       A'' (2)
   61   102           1.5548337847          42.3091782394     A''       A'' (2)
   62    42           1.6209023160          44.1069943742     A'        A'  (1)
   63    43           1.6707142804          45.4624468358     A'        A'  (1)
   64    44           1.7225482134          46.8729198591     A'        A'  (1)
   65    45           1.8929160426          51.5088641782     A'        A'  (1)
   66    46           2.0764335909          56.5026305453     A'        A'  (1)
   67   103           2.1347759897          58.0902079276     A''       A'' (2)
   68    47           2.1933544891          59.6842099361     A'        A'  (1)
   69   104           2.2247657101          60.5389527114     A''       A'' (2)
   70    48           2.2571157403          61.4192417881     A'        A'  (1)
   71   105           2.2603532050          61.5073376820     A''       A'' (2)
   72    49           2.3155200805          63.0085046804     A'        A'  (1)
   73    50           2.3583496018          64.1739552057     A'        A'  (1)
   74   106           2.3992756616          65.2876099098     A''       A'' (2)
   75    51           2.4059502820          65.4692355661     A'        A'  (1)
   76   107           2.4291776253          66.1012837098     A''       A'' (2)
   77    52           2.4542805713          66.7843695966     A'        A'  (1)
   78   108           2.4752717056          67.3555674013     A''       A'' (2)
   79    53           2.5000805174          68.0306494890     A'        A'  (1)
   80    54           2.5390281144          69.0904674849     A'        A'  (1)
   81   109           2.7172505452          73.9401463789     A''       A'' (2)
   82    55           2.8498370447          77.5480084521     A'        A'  (1)
   83   110           2.9029231675          78.9925552911     A''       A'' (2)
   84    56           2.9471162133          80.1951092042     A'        A'  (1)
   85    57           2.9739736372          80.9259368647     A'        A'  (1)
   86   111           3.0115634213          81.9488068912     A''       A'' (2)
   87    58           3.0233524258          82.2696020111     A'        A'  (1)
   88    59           3.1122290225          84.6880571601     A'        A'  (1)
   89   112           3.1138075788          84.7310118610     A''       A'' (2)
   90    60           3.2885752118          89.4866809274     A'        A'  (1)
   91   113           3.3464143334          91.0605634427     A''       A'' (2)
   92    61           3.4370063907          93.5256986469     A'        A'  (1)
   93    62           3.6571920477          99.5172549779     A'        A'  (1)
   94    63           3.7480561394         101.9897926141     A'        A'  (1)
   95   114           4.1392933944         112.6358995599     A''       A'' (2)
   96   115           4.1546781179         113.0545391704     A''       A'' (2)
   97    64           4.2501911302         115.6535803685     A'        A'  (1)
   98   116           4.3655231963         118.7919254372     A''       A'' (2)
   99    65           4.5693626299         124.3386784154     A'        A'  (1)
  100    66           4.7282824954         128.6631078062     A'        A'  (1)
  101    67           4.8293676870         131.4137757102     A'        A'  (1)
  102    68           5.1817541496         141.0026988484     A'        A'  (1)
  103   117           5.2934891559         144.0431629451     A''       A'' (2)
  104    69           5.5607544268         151.3158207011     A'        A'  (1)
  105    70           6.1088476920         166.2301966785     A'        A'  (1)
  106    71           6.2788685290         170.8566988614     A'        A'  (1)
  107   118           6.5824965760         179.1188380593     A''       A'' (2)
  108    72           6.6144898609         179.9894196014     A'        A'  (1)
  109   119           6.7124019107         182.6537419259     A''       A'' (2)
  110    73           6.7646359397         184.0751021171     A'        A'  (1)
  111   120           7.0818678671         192.7074217195     A''       A'' (2)
  112    74           7.1200769094         193.7471426200     A'        A'  (1)
  113   121           7.1508211973         194.5837372234     A''       A'' (2)
  114   122           7.2370512713         196.9301768301     A''       A'' (2)
  115    75           7.2463547314         197.1833368494     A'        A'  (1)
  116    76           7.4463578862         202.6256993741     A'        A'  (1)
  117    77           7.6775416362         208.9165290326     A'        A'  (1)
  118    78           8.0164976833         218.1399919864     A'        A'  (1)
  119   123           8.7359526609         237.7173572187     A''       A'' (2)
  120    79           8.7381689462         237.7776654095     A'        A'  (1)
  121   124           8.8082814196         239.6855228045     A''       A'' (2)
  122    80           8.8937616190         242.0115572826     A'        A'  (1)
  123    81           9.2629234337         252.0569609606     A'        A'  (1)
  124    82          14.5128678863         394.9152122882     A'        A'  (1)


  VSCF finished.

 @CHECKOUT-I, Total execution time (CPU/WALL):       46.21/       5.90 seconds.
--executable xvscf finished with status     0 in        5.93 seconds (walltime).
 --invoking executable--
/home/asmola/.local/bin/xvtran
 @GETMEM-I,  Allocated    3814 MB of main memory.
  Full RHF integral transformation
  Transformation of IIII integrals :
  1 pass through the AO integral file was required.
     5908197 AO integrals were read.
     6200062 MO integrals were written to HF2.
  Transformation of IIJJ integrals :
  1 pass through the AO integral file was required.
     2920886 AO integrals were read.
     3072909 MO integrals were written to HF2.
  Transformation of IJIJ integrals :
  1 pass through the AO integral file was required.
     5650169 AO integrals were read.
     5932290 MO integrals were written to HF2.
  Summary of active molecular orbitals: 
------------------------------------------------------------------------
 
  Index      Eigenvalue    Symmetry    Index      Eigenvalue    Symmetry
------------------------------------------------------------------------
     1      -104.9124119        1        63         3.4370064        1
     2       -20.6595950        1        64         3.6571920        1
     3       -10.6295911        1        65         3.7480561        1
     4        -8.0938752        1        66         4.2501911        1
     5        -8.0904356        1        67         4.5693626        1
     6        -1.4298679        1        68         4.7282825        1
     7        -1.0792301        1        69         4.8293677        1
     8        -0.7591534        1        70         5.1817541        1
     9        -0.6672418        1        71         5.5607544        1
    10        -0.4827498        1        72         6.1088477        1
    11        -0.2762556        1        73         6.2788685        1
    12        -8.0944885        2        74         6.6144899        1
    13        -0.5259213        2        75         6.7646359        1
    14         0.0285002        1        76         7.1200769        1
    15         0.1050525        1        77         7.2463547        1
    16         0.1133492        1        78         7.4463579        1
    17         0.1457751        1        79         7.6775416        1
    18         0.1668721        1        80         8.0164977        1
    19         0.1690953        1        81         8.7381689        1
    20         0.2393300        1        82         8.8937616        1
    21         0.2990116        1        83         9.2629234        1
    22         0.3089472        1        84        14.5128679        1
    23         0.3782496        1        85        -0.0965997        2
    24         0.4146169        1        86         0.1111742        2
    25         0.4393783        1        87         0.1822384        2
    26         0.4814839        1        88         0.2535591        2
    27         0.6173963        1        89         0.3616031        2
    28         0.6669535        1        90         0.4114729        2
    29         0.6869399        1        91         0.5978261        2
    30         0.7184446        1        92         0.7000160        2
    31         0.7802361        1        93         0.7452083        2
    32         0.8352571        1        94         0.8440191        2
    33         0.8858283        1        95         0.8752208        2
    34         0.9086707        1        96         0.9188102        2
    35         0.9174687        1        97         1.0053144        2
    36         0.9532228        1        98         1.1157313        2
    37         0.9777915        1        99         1.1968657        2
    38         1.0098269        1       100         1.3600992        2
    39         1.1303626        1       101         1.5047086        2
    40         1.2041603        1       102         1.5548338        2
    41         1.2705815        1       103         2.1347760        2
    42         1.3318685        1       104         2.2247657        2
    43         1.4076123        1       105         2.2603532        2
    44         1.6209023        1       106         2.3992757        2
    45         1.6707143        1       107         2.4291776        2
    46         1.7225482        1       108         2.4752717        2
    47         1.8929160        1       109         2.7172505        2
    48         2.0764336        1       110         2.9029232        2
    49         2.1933545        1       111         3.0115634        2
    50         2.2571157        1       112         3.1138076        2
    51         2.3155201        1       113         3.3464143        2
    52         2.3583496        1       114         4.1392934        2
    53         2.4059503        1       115         4.1546781        2
    54         2.4542806        1       116         4.3655232        2
    55         2.5000805        1       117         5.2934892        2
    56         2.5390281        1       118         6.5824966        2
    57         2.8498370        1       119         6.7124019        2
    58         2.9471162        1       120         7.0818679        2
    59         2.9739736        1       121         7.1508212        2
    60         3.0233524        1       122         7.2370513        2
    61         3.1122290        1       123         8.7359527        2
    62         3.2885752        1       124         8.8082814        2
------------------------------------------------------------------------
  -104.912411858569       -20.6595950038608       -10.6295910533430     
  -8.09387519561145       -8.09043559369538       -1.42986792267359     
  -1.07923010703764      -0.759153364306762      -0.667241778624146     
 -0.482749831415548      -0.276255613282803       -8.09448854294522     
 -0.525921266692035       2.850016288019707E-002  0.105052508511255     
  0.113349195537755       0.145775117517829       0.166872142697220     
  0.169095343110351       0.239329957826454       0.299011641531071     
  0.308947209171711       0.378249633104374       0.414616906256273     
  0.439378346507581       0.481483866487584       0.617396270460733     
  0.666953542640955       0.686939895303488       0.718444606521762     
  0.780236143097023       0.835257086957220       0.885828302551138     
  0.908670720892595       0.917468744207149       0.953222765661545     
  0.977791500859955        1.00982691390679        1.13036256528142     
   1.20416030554178        1.27058149947497        1.33186852700482     
   1.40761230745704        1.62090231598519        1.67071428040013     
   1.72254821337397        1.89291604256453        2.07643359085108     
   2.19335448913831        2.25711574032349        2.31552008048175     
   2.35834960179564        2.40595028204623        2.45428057129388     
   2.50008051736806        2.53902811441958        2.84983704474735     
   2.94711621329212        2.97397363724913        3.02335242577606     
   3.11222902250892        3.28857521177839        3.43700639074965     
   3.65719204771806        3.74805613940772        4.25019113024790     
   4.56936262988562        4.72828249541499        4.82936768698929     
   5.18175414956603        5.56075442680674        6.10884769197418     
   6.27886852902146        6.61448986093683        6.76463593971747     
   7.12007690943183        7.24635473143240        7.44635788616730     
   7.67754163621656        8.01649768333191        8.73816894621783     
   8.89376161899372        9.26292343374787        14.5128678863216     
 -9.659966604147821E-002  0.111174171005753       0.182238371028951     
  0.253559070075223       0.361603101553031       0.411472935747744     
  0.597826085210024       0.700016021266489       0.745208333918316     
  0.844019105234608       0.875220777971642       0.918810240327723     
   1.00531438497958        1.11573125913645        1.19686572577233     
   1.36009917002201        1.50470861613171        1.55483378472350     
   2.13477598965304        2.22476571005239        2.26035320504809     
   2.39927566159034        2.42917762533875        2.47527170563896     
   2.71725054518491        2.90292316748057        3.01156342132902     
   3.11380757881782        3.34641433344786        4.13929339439162     
   4.15467811792415        4.36552319633955        5.29348915590549     
   6.58249657602122        6.71240191066150        7.08186786709077     
   7.15082119725770        7.23705127134705        8.73595266085074     
   8.80828141962490     
 @CHECKOUT-I, Total execution time (CPU/WALL):       14.18/       6.98 seconds.
--executable xvtran finished with status     0 in        7.02 seconds (walltime).
 --invoking executable--
/home/asmola/.local/bin/xintprc
 @GETMEM-I,  Allocated    3814 MB of main memory.
  Processing integrals for CCSD calculation.
  @GMOIAA-I, Processing MO integrals for spin case AA.
  @GMOIAA-I, Generation of integral list completed.
                      TYPE                NUMBER
                      ----               --------
                      PPPP               9734596
                      PPPH               4559616
                      PPHH                540744
                      PHPH                295424
                      PHHH                 72213
                      HHHH                  2668

                     TOTAL              15205261

  @FORMT2-I, Second-order MP correlation energies:
            ------------------------------------------------
            E(SCF)                  =   -534.554429037233 a.u.
            E2(AA)                  =     -0.080748181544 a.u.
            E2(AB)                  =     -0.462611814024 a.u.
            E2(TOT)                 =     -0.624108177112 a.u.
            Total MP2 energy        =   -535.178537214346 a.u.
            ------------------------------------------------
   Largest T2 amplitudes for spin case AB:
       _       _                 _       _                 _       _
   i   j   a   b             i   j   a   b             i   j   a   b
-----------------------------------------------------------------------------
[ 13  13  85  85]-0.17486 [ 11  11  85  85]-0.05412 [  7   7  85  85]-0.03085
[ 13  13  87  85]-0.02920 [ 13  13  85  87]-0.02920 [ 10  10  85  85]-0.02325
[ 11  11  26  26]-0.02315 [ 13  11  85  37] 0.02231 [ 11  13  37  85] 0.02231
[ 13  13  90  85]-0.02215 [ 13  13  85  90]-0.02215 [  6   6  85  85]-0.01750
[ 13   8  85  26]-0.01730 [  8  13  26  85]-0.01730 [ 11  13  26  85]-0.01672
-----------------------------------------------------------------------------
   Norm of T2AB vector (  1080045 symmetry allowed elements):  0.3867681280.
-----------------------------------------------------------------------------
 @CHECKOUT-I, Total execution time (CPU/WALL):        3.44/       2.66 seconds.
--executable xintprc finished with status     0 in        2.73 seconds (walltime).
  calling xvcc 
 --invoking executable--
/home/asmola/.local/bin/xvcc
 @GETMEM-I,  Allocated    3814 MB of main memory.
   CCSD energy will be calculated.
   The total correlation energy is -0.624108177112 a.u.
   The total correlation energy is -0.607659046989 a.u.
  Convergence information after     1 iterations: 
  Largest element of residual vector : -0.51876080E-01.
  Largest element of DIIS residual   : -0.51876080E-01.
   The total correlation energy is -0.634103751813 a.u.
  Convergence information after     2 iterations: 
  Largest element of residual vector : -0.79470727E-01.
  Largest element of DIIS residual   : -0.67838982E-01.
   The total correlation energy is -0.633249713517 a.u.
  Convergence information after     3 iterations: 
  Largest element of residual vector : -0.90976680E-01.
  Largest element of DIIS residual   : -0.56577940E-01.
   The total correlation energy is -0.631125120313 a.u.
  Convergence information after     4 iterations: 
  Largest element of residual vector : -0.74045576E-01.
  Largest element of DIIS residual   : -0.24539654E-01.
   The total correlation energy is -0.629567721464 a.u.
  Convergence information after     5 iterations: 
  Largest element of residual vector : -0.21173746E-01.
  Largest element of DIIS residual   : -0.35647356E-02.
   The total correlation energy is -0.631374928261 a.u.
  Convergence information after     6 iterations: 
  Largest element of residual vector : -0.48311015E-02.
  Largest element of DIIS residual   :  0.25636725E-02.
   The total correlation energy is -0.631500329769 a.u.
  Convergence information after     7 iterations: 
  Largest element of residual vector :  0.23814566E-02.
  Largest element of DIIS residual   :  0.18886996E-02.
   The total correlation energy is -0.631619037548 a.u.
  Convergence information after     8 iterations: 
  Largest element of residual vector :  0.12442511E-02.
  Largest element of DIIS residual   :  0.63853183E-03.
   The total correlation energy is -0.631577651894 a.u.
  Convergence information after     9 iterations: 
  Largest element of residual vector :  0.82345648E-03.
  Largest element of DIIS residual   :  0.43804212E-03.
   The total correlation energy is -0.631618228658 a.u.
  Convergence information after    10 iterations: 
  Largest element of residual vector : -0.56281754E-03.
  Largest element of DIIS residual   : -0.57621586E-03.
   The total correlation energy is -0.631630980322 a.u.
  Convergence information after    11 iterations: 
  Largest element of residual vector : -0.75613391E-03.
  Largest element of DIIS residual   : -0.64217705E-03.
   The total correlation energy is -0.631642051957 a.u.
  Convergence information after    12 iterations: 
  Largest element of residual vector : -0.84578255E-03.
  Largest element of DIIS residual   : -0.61497806E-03.
   The total correlation energy is -0.631630558588 a.u.
  Convergence information after    13 iterations: 
  Largest element of residual vector : -0.80252865E-03.
  Largest element of DIIS residual   : -0.60291030E-03.
   The total correlation energy is -0.631621253722 a.u.
  Convergence information after    14 iterations: 
  Largest element of residual vector : -0.78289111E-03.
  Largest element of DIIS residual   : -0.60909500E-03.
   The total correlation energy is -0.631622006693 a.u.
  Convergence information after    15 iterations: 
  Largest element of residual vector : -0.79037382E-03.
  Largest element of DIIS residual   : -0.61675362E-03.
   The total correlation energy is -0.631624639816 a.u.
  Convergence information after    16 iterations: 
  Largest element of residual vector : -0.80179561E-03.
  Largest element of DIIS residual   : -0.71446339E-03.
   The total correlation energy is -0.631629454286 a.u.
  Convergence information after    17 iterations: 
  Largest element of residual vector : -0.93474889E-03.
  Largest element of DIIS residual   : -0.40838989E-03.
   The total correlation energy is -0.631610202730 a.u.
  Convergence information after    18 iterations: 
  Largest element of residual vector : -0.51895973E-03.
  Largest element of DIIS residual   : -0.24239588E-03.
   The total correlation energy is -0.631592959073 a.u.
  Convergence information after    19 iterations: 
  Largest element of residual vector : -0.22520926E-03.
  Largest element of DIIS residual   : -0.22307159E-03.
   The total correlation energy is -0.631593640322 a.u.
  Convergence information after    20 iterations: 
  Largest element of residual vector : -0.20704759E-03.
  Largest element of DIIS residual   : -0.19868685E-03.
   The total correlation energy is -0.631587612267 a.u.
  Convergence information after    21 iterations: 
  Largest element of residual vector : -0.18243214E-03.
  Largest element of DIIS residual   : -0.15620910E-03.
   The total correlation energy is -0.631589241288 a.u.
  Convergence information after    22 iterations: 
  Largest element of residual vector : -0.14206326E-03.
  Largest element of DIIS residual   : -0.97072238E-04.
   The total correlation energy is -0.631591004904 a.u.
  Convergence information after    23 iterations: 
  Largest element of residual vector : -0.86800485E-04.
  Largest element of DIIS residual   : -0.70880204E-04.
   The total correlation energy is -0.631594486571 a.u.
  Convergence information after    24 iterations: 
  Largest element of residual vector : -0.97088547E-04.
  Largest element of DIIS residual   : -0.83100264E-04.
   The total correlation energy is -0.631595832365 a.u.
  Convergence information after    25 iterations: 
  Largest element of residual vector : -0.11346571E-03.
  Largest element of DIIS residual   : -0.87694446E-04.
   The total correlation energy is -0.631595923442 a.u.
  Convergence information after    26 iterations: 
  Largest element of residual vector : -0.11906145E-03.
  Largest element of DIIS residual   : -0.82357572E-04.
   The total correlation energy is -0.631595262383 a.u.
  Convergence information after    27 iterations: 
  Largest element of residual vector : -0.11272333E-03.
  Largest element of DIIS residual   : -0.74310357E-04.
   The total correlation energy is -0.631595124944 a.u.
  Convergence information after    28 iterations: 
  Largest element of residual vector : -0.10379776E-03.
  Largest element of DIIS residual   : -0.66341054E-04.
   The total correlation energy is -0.631594980306 a.u.
  Convergence information after    29 iterations: 
  Largest element of residual vector : -0.93560991E-04.
  Largest element of DIIS residual   : -0.84530141E-04.
   The total correlation energy is -0.631597164600 a.u.
  Convergence information after    30 iterations: 
  Largest element of residual vector : -0.11711973E-03.
  Largest element of DIIS residual   : -0.87784044E-04.
   The total correlation energy is -0.631597586590 a.u.
  Convergence information after    31 iterations: 
  Largest element of residual vector : -0.12148364E-03.
  Largest element of DIIS residual   :  0.28426068E-04.
   The total correlation energy is -0.631592739140 a.u.
  Convergence information after    32 iterations: 
  Largest element of residual vector : -0.43059718E-04.
  Largest element of DIIS residual   :  0.21173595E-04.
   The total correlation energy is -0.631592013656 a.u.
  Convergence information after    33 iterations: 
  Largest element of residual vector :  0.16808462E-04.
  Largest element of DIIS residual   :  0.15591852E-04.
   The total correlation energy is -0.631591552257 a.u.
  Convergence information after    34 iterations: 
  Largest element of residual vector :  0.11813993E-04.
  Largest element of DIIS residual   :  0.72444027E-05.
   The total correlation energy is -0.631591722330 a.u.
  Convergence information after    35 iterations: 
  Largest element of residual vector :  0.56985956E-05.
  Largest element of DIIS residual   :  0.46420007E-05.
   The total correlation energy is -0.631591801124 a.u.
  Convergence information after    36 iterations: 
  Largest element of residual vector :  0.42362498E-05.
  Largest element of DIIS residual   :  0.41164079E-05.
   The total correlation energy is -0.631591779256 a.u.
  Convergence information after    37 iterations: 
  Largest element of residual vector :  0.37375512E-05.
  Largest element of DIIS residual   :  0.35872851E-05.
   The total correlation energy is -0.631591755513 a.u.
  Convergence information after    38 iterations: 
  Largest element of residual vector : -0.36655663E-05.
  Largest element of DIIS residual   : -0.35679048E-05.
   The total correlation energy is -0.631591686127 a.u.
  Convergence information after    39 iterations: 
  Largest element of residual vector : -0.49999393E-05.
  Largest element of DIIS residual   : -0.41599286E-05.
   The total correlation energy is -0.631591748499 a.u.
  Convergence information after    40 iterations: 
  Largest element of residual vector : -0.57995550E-05.
  Largest element of DIIS residual   : -0.32318438E-05.
   The total correlation energy is -0.631591695202 a.u.
  Convergence information after    41 iterations: 
  Largest element of residual vector : -0.43101736E-05.
  Largest element of DIIS residual   : -0.29707399E-05.
   The total correlation energy is -0.631591637364 a.u.
  Convergence information after    42 iterations: 
  Largest element of residual vector : -0.39066733E-05.
  Largest element of DIIS residual   : -0.29719334E-05.
   The total correlation energy is -0.631591597854 a.u.
  Convergence information after    43 iterations: 
  Largest element of residual vector : -0.38620659E-05.
  Largest element of DIIS residual   : -0.31686225E-05.
   The total correlation energy is -0.631591590804 a.u.
  Convergence information after    44 iterations: 
  Largest element of residual vector : -0.40914305E-05.
  Largest element of DIIS residual   : -0.34489771E-05.
   The total correlation energy is -0.631591596670 a.u.
  Convergence information after    45 iterations: 
  Largest element of residual vector : -0.44795110E-05.
  Largest element of DIIS residual   : -0.21380774E-05.
   The total correlation energy is -0.631591480547 a.u.
  Convergence information after    46 iterations: 
  Largest element of residual vector : -0.27517946E-05.
  Largest element of DIIS residual   : -0.13687302E-05.
   The total correlation energy is -0.631591370072 a.u.
  Convergence information after    47 iterations: 
  Largest element of residual vector : -0.10291273E-05.
  Largest element of DIIS residual   : -0.10615751E-05.
   The total correlation energy is -0.631591335017 a.u.
  Convergence information after    48 iterations: 
  Largest element of residual vector : -0.83649173E-06.
  Largest element of DIIS residual   : -0.70965662E-06.
   The total correlation energy is -0.631591334812 a.u.
  Convergence information after    49 iterations: 
  Largest element of residual vector : -0.56429663E-06.
  Largest element of DIIS residual   : -0.39743300E-06.
   The total correlation energy is -0.631591353803 a.u.
  Convergence information after    50 iterations: 
  Largest element of residual vector : -0.31973660E-06.
  Largest element of DIIS residual   : -0.22430077E-06.
   The total correlation energy is -0.631591371592 a.u.
  Convergence information after    51 iterations: 
  Largest element of residual vector : -0.20171271E-06.
  Largest element of DIIS residual   : -0.31452233E-06.
   The total correlation energy is -0.631591396541 a.u.
  Convergence information after    52 iterations: 
  Largest element of residual vector : -0.40214404E-06.
  Largest element of DIIS residual   : -0.32539457E-06.
   The total correlation energy is -0.631591397019 a.u.
  Convergence information after    53 iterations: 
  Largest element of residual vector : -0.41994291E-06.
  Largest element of DIIS residual   : -0.23552112E-06.
   The total correlation energy is -0.631591390665 a.u.
  Convergence information after    54 iterations: 
  Largest element of residual vector : -0.30628951E-06.
  Largest element of DIIS residual   : -0.22604396E-06.
   The total correlation energy is -0.631591390732 a.u.
  Convergence information after    55 iterations: 
  Largest element of residual vector : -0.29643577E-06.
  Largest element of DIIS residual   : -0.23239059E-06.
   The total correlation energy is -0.631591390474 a.u.
  Convergence information after    56 iterations: 
  Largest element of residual vector : -0.30386354E-06.
  Largest element of DIIS residual   : -0.22635966E-06.
   The total correlation energy is -0.631591389558 a.u.
  Convergence information after    57 iterations: 
  Largest element of residual vector : -0.29485809E-06.
  Largest element of DIIS residual   : -0.21026560E-06.
   The total correlation energy is -0.631591388176 a.u.
  Convergence information after    58 iterations: 
  Largest element of residual vector : -0.27301474E-06.
  Largest element of DIIS residual   : -0.17976143E-06.
   The total correlation energy is -0.631591385038 a.u.
  Convergence information after    59 iterations: 
  Largest element of residual vector : -0.20713293E-06.
  Largest element of DIIS residual   : -0.15442906E-06.
   The total correlation energy is -0.631591382233 a.u.
  Convergence information after    60 iterations: 
  Largest element of residual vector : -0.14204726E-06.
  Largest element of DIIS residual   : -0.12879163E-06.
   The total correlation energy is -0.631591380015 a.u.
  Convergence information after    61 iterations: 
  Largest element of residual vector : -0.11845014E-06.
  Largest element of DIIS residual   : -0.74838768E-07.
   The total correlation energy is -0.631591380446 a.u.
  Convergence information after    62 iterations: 
  Largest element of residual vector : -0.68217017E-07.
  Largest element of DIIS residual   :  0.57965357E-07.
   The total correlation energy is -0.631591379578 a.u.
  Convergence information after    63 iterations: 
  Largest element of residual vector :  0.45612587E-07.
  Largest element of DIIS residual   :  0.45503927E-07.
   The total correlation energy is -0.631591380229 a.u.
  Convergence information after    64 iterations: 
  Largest element of residual vector : -0.57318981E-07.
  Largest element of DIIS residual   : -0.51445961E-07.
   The total correlation energy is -0.631591380938 a.u.
  Convergence information after    65 iterations: 
  Largest element of residual vector : -0.73386276E-07.
  Largest element of DIIS residual   : -0.55076452E-07.
   The total correlation energy is -0.631591381073 a.u.
  Convergence information after    66 iterations: 
  Largest element of residual vector : -0.78068072E-07.
  Largest element of DIIS residual   : -0.37003413E-07.
   The total correlation energy is -0.631591379950 a.u.
  Convergence information after    67 iterations: 
  Largest element of residual vector : -0.54366218E-07.
  Largest element of DIIS residual   :  0.35242006E-07.
   The total correlation energy is -0.631591379960 a.u.
  Convergence information after    68 iterations: 
  Largest element of residual vector : -0.49876066E-07.
  Largest element of DIIS residual   : -0.33151988E-07.
   The total correlation energy is -0.631591379525 a.u.
  Convergence information after    69 iterations: 
  Largest element of residual vector : -0.48467587E-07.
  Largest element of DIIS residual   : -0.38870201E-07.
   The total correlation energy is -0.631591379629 a.u.
  Convergence information after    70 iterations: 
  Largest element of residual vector : -0.54145019E-07.
  Largest element of DIIS residual   : -0.40200261E-07.
   The total correlation energy is -0.631591379680 a.u.
  Convergence information after    71 iterations: 
  Largest element of residual vector : -0.55908868E-07.
  Largest element of DIIS residual   :  0.26668242E-07.
   The total correlation energy is -0.631591377822 a.u.
  Convergence information after    72 iterations: 
  Largest element of residual vector :  0.23989652E-07.
  Largest element of DIIS residual   :  0.25039547E-07.
   The total correlation energy is -0.631591376937 a.u.
  Convergence information after    73 iterations: 
  Largest element of residual vector :  0.22526533E-07.
[...]
 term  0.693077097822856     
 final tnorm  0.768226659639648     
  norm contr. I: |<0|L dT/dx|0>|^2   0.000000000000000E+000
  norm contr. II: <0|[nabla(1+L)e-T][nabla e^T]|0>  0.693077097822856     
  total norm contribution  0.693077097822856     
 oo -9.988821013772978E-003
 vv  -2.21911307694270     
 vo -5.091408054169630E-002
  Correlated perturbed 1-el contribution to DBOC  -2.28001597849817       cm**-1
  SUM_I |dc_I/dx|^2 contribution to DBOC   1.19346650194921       cm**-1
 
 
  The total diagonal Born-Oppenheimer correction (DBOC) is:      0.0089325900 a.u.
  The total diagonal Born-Oppenheimer correction (DBOC) is:       1960.476892 cm-1
 
 Total CC energy including DBOC  -535.177087823087     
 First-order density matrix is being calculated  (Symmetry block 2, perturbation   3)
 Calculation of the contributions of <pq||rs> to dI(i,j)/dx required   1.0 seconds.
 Calculation of the contributions of <pq||rs> to dI(a,b)/dx required   6.1 seconds.
 Calculation of the contributions of <pq||rs> to dI(i,a)/dx required   3.2 seconds.
 First-order Z-vector equations are solved for 1 perturbation.
 Convergence reached after  25 iterations.
        U*G(pq,rs) contribution is being calculated
             (Symmetry block 2, perturbation   3)

 CCSD contribution to force constants 

        0.0000000000        0.0000000000        0.0000000000
        0.0000000000        0.0000000000        0.0000000000
        0.0000000000        0.0000000000        0.0000000000
        0.0000000000        0.0000000000        0.0000000000
        0.0000000000        0.0000000000        0.0000000000
        0.0000000000        0.0000000000        0.0000000000
        0.0000000000        0.0000000000        0.0000000000
        0.0000000000        0.0000000000        0.0000000000
        0.0000000000        0.0000000000        0.0000000000
        0.0000000000        0.0000000000        0.0000000000
        0.0000000000        0.0000000000        0.0000000000
        0.0000000000        0.0000000000        0.0000000000
        0.0000000000        0.0000000000        0.0000000000
        0.0000000000        0.0000000000        0.0000000000
        0.0000000000        0.0000000000        0.0000000000
        0.0000000000        0.0000000000        0.0000000000
        0.0000000000        0.0000000000        0.0000000000
        0.0000000000        0.0000000000        0.0000000000
        0.0000000000        0.0000000000        0.0000000000
        0.0000000000        0.0000000000        0.0000000000
        0.0000000000        0.0000000000        0.0000000000
        0.0000000000        0.0000000000        0.0000000000
        0.0000000000        0.0000000000        0.0000000000
        0.0000000000        0.0000000000        0.0000000000
        0.0000000000        0.0000000000        0.0000000000
        0.0000000000        0.0000000000        0.0000000000
        3.8964975933        0.6151879932       -4.5116855865

 CCSD contribution to dipole derivatives 

        0.0000000000        0.0000000000        0.0000000000
        0.0000000000        0.0000000000        0.0000000000
        0.0000000000        0.0000000000        0.0000000000
        0.0000000000        0.0000000000        0.0000000000
        0.0000000000        0.0000000000        0.0000000000
        0.0000000000        0.0000000000        0.0000000000
        0.0000000000        0.0000000000        0.0000000000
        0.0000000000        0.0000000000        0.0000000000
        0.0000000000        0.0000000000        0.0631107624
 @CHECKOUT-I, Total execution time (CPU/WALL):      757.83/     106.58 seconds.
--executable xsdcc finished with status     0 in      106.65 seconds (walltime).
 --invoking executable--
/home/asmola/.local/bin/xanti
 @GETMEM-I,  Allocated    3814 MB of main memory.
 CCSD MO derivative gammas will be sorted to Mulliken order.
 @CHECKOUT-I, Total execution time (CPU/WALL):        3.04/       1.57 seconds.
--executable xanti finished with status     0 in        1.61 seconds (walltime).
 --invoking executable--
/home/asmola/.local/bin/xbcktrn
 @GETMEM-I,  Allocated    3814 MB of main memory.
 CCSD MO derivative gammas will be transformed to the AO basis.
 @CHECKOUT-I, Total execution time (CPU/WALL):        4.73/       0.61 seconds.
--executable xbcktrn finished with status     0 in        0.63 seconds (walltime).
 --invoking executable--
/home/asmola/.local/bin/xvdint
 @GETMEM-I,  Allocated    3814 MB of main memory.
 One- and two-electron integral derivatives are calculated
 for RHF-CC/MBPT hessians and dipole derivatives.
 Spherical gaussians are used.
  magnet F F
 Evaluation of 2el integral derivatives

                      Two-electron integral gradient
                      ------------------------------

                         O #1 x     0.0000000000
                         O #1 y     0.0000000000
                         H #2 x     0.0000000000
                         H #2 y     0.0000000000
                         CL#3 x     0.0000000000
                         CL#3 y     0.0000000000


 O #1       0.0000000000            0.0000000000           -0.1375073736
 H #2       0.0000000000            0.0000000000            0.0066598028
 CL#3       0.0000000000            0.0000000000            0.1308475708


 Evaluation of 2e integral derivatives required   53.06 seconds.
  contribution to Hessian
        0.0000000000        0.0000000000        0.0000000000
        0.0000000000        0.0000000000        0.0000000000
       -0.1375073736        0.0066598028        0.1308475708
 @CHECKOUT-I, Total execution time (CPU/WALL):       53.06/       8.40 seconds.
--executable xvdint finished with status     0 in        8.44 seconds (walltime).
 --invoking executable--
/home/asmola/.local/bin/xanti
 @GETMEM-I,  Allocated    3814 MB of main memory.
 CCSD MO gammas will be sorted to Mulliken order.
 @CHECKOUT-I, Total execution time (CPU/WALL):        3.42/       2.01 seconds.
--executable xanti finished with status     0 in        2.05 seconds (walltime).
 --invoking executable--
/home/asmola/.local/bin/xbcktrn
 @GETMEM-I,  Allocated    3814 MB of main memory.
 CCSD MO gammas will be transformed to the AO basis.
 @CHECKOUT-I, Total execution time (CPU/WALL):        8.06/       1.10 seconds.
--executable xbcktrn finished with status     0 in        1.12 seconds (walltime).
 --invoking executable--
/home/asmola/.local/bin/xvdint
 @GETMEM-I,  Allocated    3814 MB of main memory.
 One- and two-electron integral derivatives are calculated
 for RHF-CC/MBPT hessians and dipole derivatives.
 Spherical gaussians are used.
  magnet F F

                     Kinetic energy integral gradient
                     --------------------------------

                         O #1 x    -0.4592985386
                         O #1 y    -0.5189448915
                         H #2 x     0.3853880568
                         H #2 y     0.5438853542
                         CL#3 x     0.0739104818
                         CL#3 y    -0.0249404627


 O #1      -0.4592985386           -0.5189448915            0.0000000000
 H #2       0.3853880568            0.5438853542            0.0000000000
 CL#3       0.0739104818           -0.0249404627            0.0000000000



                   Nuclear attraction integral gradient
                   ------------------------------------

                         O #1 x   -18.3335291599
                         O #1 y     5.7017175965
                         H #2 x    -5.2403487921
                         H #2 y    -5.7533944807
                         CL#3 x    23.5738779520
                         CL#3 y     0.0516768842


 O #1     -18.3335291599            5.7017175965            0.0000000000
 H #2      -5.2403487921           -5.7533944807            0.0000000000
 CL#3      23.5738779520            0.0516768842            0.0000000000



                      Reorthonormalization gradient
                      -----------------------------

                         O #1 x     0.0000000000
                         O #1 y     0.0000000000
                         H #2 x     0.0000000000
                         H #2 y     0.0000000000
                         CL#3 x     0.0000000000
                         CL#3 y     0.0000000000


 O #1       0.0000000000            0.0000000000            0.0000000000
 H #2       0.0000000000            0.0000000000            0.0000000000
 CL#3       0.0000000000            0.0000000000            0.0000000000



                     Kinetic energy integral Hessian
                     -------------------------------


           Symmetry 1

           O #1 x      O #1 y      H #2 x      H #2 y      CL#3 x      CL#3 y

 O #1 x   -0.216992
 O #1 y    0.565567    0.200025
 H #2 x    0.356732   -0.563746   -0.345773
 H #2 y   -0.563746   -0.199576    0.575912    0.203137
 CL#3 x   -0.139740   -0.001821   -0.010959   -0.012166    0.150698
 CL#3 y   -0.001821   -0.000449   -0.012166   -0.003561    0.013987    0.004009


           Symmetry 2

           O #1 z      H #2 z      CL#3 z

 O #1 z   -0.696486
 H #2 z    0.621855   -0.626411
 CL#3 z    0.074631    0.004556   -0.079187




           O #1 x      O #1 y      O #1 z      H #2 x      H #2 y      H #2 z

 O #1 x   -0.216992
 O #1 y    0.565567    0.200025
 O #1 z    0.000000    0.000000   -0.696486

 H #2 x    0.356732   -0.563746    0.000000   -0.345773
 H #2 y   -0.563746   -0.199576    0.000000    0.575912    0.203137
 H #2 z    0.000000    0.000000    0.621855    0.000000    0.000000   -0.626411

 CL#3 x   -0.139740   -0.001821    0.000000   -0.010959   -0.012166    0.000000
 CL#3 y   -0.001821   -0.000449    0.000000   -0.012166   -0.003561    0.000000
 CL#3 z    0.000000    0.000000    0.074631    0.000000    0.000000    0.004556


           CL#3 x      CL#3 y      CL#3 z

 CL#3 x    0.150698
 CL#3 y    0.013987    0.004009
 CL#3 z    0.000000    0.000000   -0.079187




                   Nuclear attraction integral Hessian
                   -----------------------------------


           Symmetry 1

           O #1 x      O #1 y      H #2 x      H #2 y      CL#3 x      CL#3 y

 O #1 x  -13.634523
 O #1 y   -2.625928    5.911668
 H #2 x   -4.655404    3.815557    3.724147
 H #2 y    3.831001   -0.416448   -4.693825    0.442142
 CL#3 x   18.289927   -1.189629    0.931257    0.862824  -19.221183
 CL#3 y   -1.205073   -5.495220    0.878268   -0.025694    0.326805    5.520914


           Symmetry 2

           O #1 z      H #2 z      CL#3 z

 O #1 z   13.885235
 H #2 z   -6.213219    6.788872
 CL#3 z   -7.672016   -0.575653    8.247668




           O #1 x      O #1 y      O #1 z      H #2 x      H #2 y      H #2 z

 O #1 x  -13.634523
 O #1 y   -2.625928    5.911668
 O #1 z    0.000000    0.000000   13.885235

 H #2 x   -4.655404    3.815557    0.000000    3.724147
 H #2 y    3.831001   -0.416448    0.000000   -4.693825    0.442142
 H #2 z    0.000000    0.000000   -6.213219    0.000000    0.000000    6.788872

 CL#3 x   18.289927   -1.189629    0.000000    0.931257    0.862824    0.000000
 CL#3 y   -1.205073   -5.495220    0.000000    0.878268   -0.025694    0.000000
 CL#3 z    0.000000    0.000000   -7.672016    0.000000    0.000000   -0.575653


           CL#3 x      CL#3 y      CL#3 z

 CL#3 x  -19.221183
 CL#3 y    0.326805    5.520914
 CL#3 z    0.000000    0.000000    8.247668




                Highest order reorthonormalization Hessian
                ------------------------------------------


           Symmetry 1

           O #1 x      O #1 y      H #2 x      H #2 y      CL#3 x      CL#3 y

 O #1 x    0.000000
 O #1 y    0.000000    0.000000
 H #2 x    0.000000    0.000000    0.000000
 H #2 y    0.000000    0.000000    0.000000    0.000000
 CL#3 x    0.000000    0.000000    0.000000    0.000000    0.000000
 CL#3 y    0.000000    0.000000    0.000000    0.000000    0.000000    0.000000


           Symmetry 2

           O #1 z      H #2 z      CL#3 z

 O #1 z    0.000000
 H #2 z    0.000000    0.000000
 CL#3 z    0.000000    0.000000    0.000000




           O #1 x      O #1 y      O #1 z      H #2 x      H #2 y      H #2 z


           CL#3 x      CL#3 y      CL#3 z




                Electronic contributions to dipole moment
                -----------------------------------------

                               au             Debye

                    x      1.48715495      3.77997151
                    y      0.27553822      0.70034843

  Conversion factor used: 1 a.u. =   2.54174691 Debye 



   Electronic contributions to static part of dipole moment derivatives
   --------------------------------------------------------------------


                     Total dipole moment derivatives
                     -------------------------------


           Symmetry 1
                              Ex             Ey

               O #1 x    -8.52299168    -0.08681464
               O #1 y    -0.29187570    -8.13899476
               H #2 x    -0.38581415     0.14372643
               H #2 y     0.38903543    -0.50002616
               CL#3 x   -17.09119417    -0.05691179
               CL#3 y    -0.09715973   -17.36097907

           Symmetry 2
                              Ez

               O #1 z    -7.88594733
               H #2 z    -0.81866843
               CL#3 z   -17.29538423



                       Ex          Ey          Ez

      O #1    x   -8.522992   -0.086815    0.000000
      O #1    y   -0.291876   -8.138995    0.000000
      O #1    z    0.000000    0.000000   -7.885947

      H #2    x   -0.385814    0.143726    0.000000
      H #2    y    0.389035   -0.500026    0.000000
      H #2    z    0.000000    0.000000   -0.818668

      CL#3    x  -17.091194   -0.056912    0.000000
      CL#3    y   -0.097160  -17.360979    0.000000
      CL#3    z    0.000000    0.000000  -17.295384

 Evaluation of 1e integral derivatives required    1.07 seconds.
 Evaluation of 2el integral derivatives

                      Two-electron integral gradient
                      ------------------------------

                         O #1 x     6.8225790972
                         O #1 y    -2.3378116708
                         H #2 x     2.6471245561
                         H #2 y     2.5819434984
                         CL#3 x    -9.4697036532
                         CL#3 y    -0.2441318276


 O #1       6.8225790972           -2.3378116708            0.0000000000
 H #2       2.6471245561            2.5819434984            0.0000000000
 CL#3      -9.4697036532           -0.2441318276            0.0000000000


 Evaluation of 2e integral derivatives required  131.47 seconds.

                            Molecular gradient
                            ------------------

                         O #1 x     0.2545154740
                         O #1 y     0.1880403775
                         H #2 x    -0.1429783820
                         H #2 y    -0.2162669050
                         CL#3 x    -0.1115370920
                         CL#3 y     0.0282265276


 O #1       0.2545154740            0.1880403775            0.0000000000
 H #2      -0.1429783820           -0.2162669050            0.0000000000
 CL#3      -0.1115370920            0.0282265276            0.0000000000


  Molecular gradient norm 0.425E+00

                            Molecular hessian
                            -----------------


           Symmetry 1

           O #1 x      O #1 y      H #2 x      H #2 y      CL#3 x      CL#3 y

 O #1 x    0.130042
 O #1 y    5.750264    7.916883
 H #2 x   -0.215519   -4.849675    0.576573
 H #2 y   -5.700230   -7.570913    6.070356    7.206555
 CL#3 x    0.085477    0.568925   -0.407955   -0.347676    0.322478
 CL#3 y   -0.050034   -0.345970   -0.013281   -0.000108    0.063315    0.346078


           Symmetry 2

           O #1 z      H #2 z      CL#3 z

 O #1 z    4.272154
 H #2 z   -8.038024    6.858225
 CL#3 z    3.765870    0.613894   -4.379763




           O #1 x      O #1 y      O #1 z      H #2 x      H #2 y      H #2 z

 O #1 x    0.130042
 O #1 y    5.750264    7.916883
 O #1 z    0.000000    0.000000    4.272154

 H #2 x   -0.215519   -4.849675    0.000000    0.576573
 H #2 y   -5.700230   -7.570913    0.000000    6.070356    7.206555
 H #2 z    0.000000    0.000000   -8.038024    0.000000    0.000000    6.858225

 CL#3 x    0.085477    0.568925    0.000000   -0.407955   -0.347676    0.000000
 CL#3 y   -0.050034   -0.345970    0.000000   -0.013281   -0.000108    0.000000
 CL#3 z    0.000000    0.000000    3.765870    0.000000    0.000000    0.613894


           CL#3 x      CL#3 y      CL#3 z

 CL#3 x    0.322478
 CL#3 y    0.063315    0.346078
 CL#3 z    0.000000    0.000000   -4.379763




                           Total dipole moment
                           -------------------

                               au             Debye

                    x     -0.53012971     -1.34745556
                    y     -0.44062742     -1.11996338

  Conversion factor used: 1 a.u. =   2.54174691 Debye 



                     Total dipole moment derivatives
                     -------------------------------


           Symmetry 1
                              Ex             Ey

               O #1 x     0.42788660     0.52670795
               O #1 y     0.38447238     0.12802688
               H #2 x    -0.05866032    -0.08293097
               H #2 y    -0.44007687    -0.02162878
               CL#3 x    -0.36922464    -0.44377635
               CL#3 y     0.05560524    -0.10639811

           Symmetry 2
                              Ez

               O #1 z    -0.20271030
               H #2 z     0.28588102
               CL#3 z    -0.08317075



                       Ex          Ey          Ez

      O #1    x    0.427887    0.526708    0.000000
      O #1    y    0.384472    0.128027    0.000000
      O #1    z    0.000000    0.000000   -0.202710

      H #2    x   -0.058660   -0.082931    0.000000
      H #2    y   -0.440077   -0.021629    0.000000
      H #2    z    0.000000    0.000000    0.285881

      CL#3    x   -0.369225   -0.443776    0.000000
      CL#3    y    0.055605   -0.106398    0.000000
      CL#3    z    0.000000    0.000000   -0.083171

  Molecular gradient does not satisfy rotational invariance condition.
   rotational invariance in yz-plane :        0.0000E+00
   rotational invariance in xz-plane :        0.0000E+00
   rotational invariance in xy-plane :        -.4543E-01
 @CHECKOUT-I, Total execution time (CPU/WALL):      132.54/      18.21 seconds.
--executable xvdint finished with status     0 in       18.25 seconds (walltime).
 --invoking executable--
/home/asmola/.local/bin/xjoda
  @GTFLGS-I, Hessian will be transformed to curvilinear coordinates.
  @GTFLGS-I, Hessian will be transformed to curvilinear coordinates.
  igrd and ihes are                      0                     1
  gradient from JOBARC 
   0.254515474023770   0.188040377453302   0.000000000000000
  -0.142978381999678  -0.216266905019690   0.000000000000000
  -0.111537092024125   0.028226527566399   0.000000000000000
 
  @PROJFCM-I, Projecting force constant matrix onto totally symmetric subspace.
  Largest difference between matrix elements of symmetrized
  and unsymmetrized FCM :     0.0000000000E+00.
 
  Summary of diagonal Born-Oppenheimer correction at the correlated level
  The total diagonal Born-Oppenheimer correction (DBOC) is:      0.0089325900 a.u.
  The total diagonal Born-Oppenheimer correction (DBOC) is:       1960.476892 cm-1
  The total diagonal Born-Oppenheimer correction (DBOC) is:            23.453 kJ/mole
  hellooooooo 
  readis is  F
 
 @CHECKOUT-I, Total execution time (CPU/WALL):        0.02/       0.03 seconds.
--executable xjoda finished with status     0 in        0.07 seconds (walltime).
  The final electronic energy is      -535.177087823087049 a.u. 
  This computation required                         1461.78 seconds (walltime).
