 --invoking executable--
/home/asmola/.local/bin/xjoda


   *************************************************************************
         <<<     CCCCCC     CCCCCC   |||     CCCCCC     CCCCCC   >>>
       <<<      CCC        CCC       |||    CCC        CCC         >>>
      <<<      CCC        CCC        |||   CCC        CCC            >>>
    <<<        CCC        CCC        |||   CCC        CCC              >>>
      <<<      CCC        CCC        |||   CCC        CCC            >>>
       <<<      CCC        CCC       |||    CCC        CCC         >>>
         <<<     CCCCCC     CCCCCC   |||     CCCCCC     CCCCCC   >>>
   *************************************************************************

     ****************************************************************
     * CFOUR Coupled-Cluster techniques for Computational Chemistry *
     ****************************************************************
 

   Department of Chemistry                Institut fuer Physikalische Chemie
   University of Florida                  Universitaet Mainz
   Gainesville, FL 32611, USA             D-55099 Mainz, Germany

   Department of Chemistry                Fakultaet fuer Chemie und Biowiss.
   Johns Hopkins University               Karlsruher Institut fuer Technologie
   Baltimore, MD 21218, USA               D-76131 Karlsruhe, Germany

   Department of Chemistry                Department of Physical Chemistry
   Southern Methodist University          Eotvos Lorand University
   Dallas, TX 75275, USA                  H-1053 Budapest, Hungary

 
                       Version 2.1
 
                     vincent.theory.phys.ucl.ac.uk                     
                     Tue 28 Jan 18:54:05 GMT 2025                      
                     integer*8 version is running
 
********************************************************************************
*                          Input from ZMAT file                                *
********************************************************************************
Hypochlorous acid DBOC calculation                                              
O                                                                               
H 1 ROH                                                                         
CL 1 ROCL 2 A                                                                   
                                                                                
ROH=0.96000000                                                                  
ROCL=1.68300000                                                                 
A=114.50000                                                                     
                                                                                
                                                                                
*CFOUR(CALC=CCSD,BASIS=AUG-PVTZ,SCF_CONV=10                                     
CC_CONV=10,DBOC=ON,MEMORY=500000000)                                            
********************************************************************************
  @GTFLGS-I, Hessian will be transformed to curvilinear coordinates.
    -------------------------------------------------------------------
                    CFOUR Control Parameters 
    -------------------------------------------------------------------
        External           Internal           Value            Units
          Name               Name
    -------------------------------------------------------------------
       ABCDTYPE             IABCDT         STANDARD    [  0]    ***   
       ANHARMONIC           IANHAR         OFF         [  0]    ***   
       ANH_ALGORIT          IANALG         STANDARD    [  0]    ***   
       ANH_DERIVAT          IANDER         SECOND      [  1]    ***   
       ANH_MODE             ANHMOD         VIBRATION   [  0]    ***   
       ANH_STEPSIZ          ICUBST             50000          x 10-6  
       ANH_SYMMETR          IANHSM         ABELIAN     [  0]    ***   
       AO_LADDERS           IAOLAD         SINGLEPASS  [  1]    ***   
       AV_SCF               IAVSCF         OFF         [  0]    ***   
       BASIS                IBASIS         AUG-PVTZ    [ 34]    ***   
       BOTHVECTORS          BOTHVC         OFF         [  0]    ***   
       BOX_POTENT           IPIAB          OFF         [  0]    ***   
       BREIT                IBREIT         OFF         [  0]    ***   
       BRUCK_CONV           IBRTOL          10D-  4             ***   
       BRUECKNER            IBRKNR         OFF         [  0]    ***   
       BUFFERSIZE           IBUFFS              4096            ***   
       CACHE_RECS           ICHREC             10               ***   
       CALCLEVEL            ICLLVL         CCSD        [ 10]    ***   
       CCORBOPT             ICCORB         OFF         [  0]  x 0.01  
       CC_CONV              ICCCNV          10D- 10             ***   
       CC_EXPORDER          ICCEOR              5               ***   
       CC_EXTRAPOL          ICCEXT         DIIS        [  1]    ***   
       CC_GUESS             ICCGES         MP2         [  0]    ***   
       CC_MAXCYC            ICCCYC            100              cycles 
       CC_PROGRAM           ICCPRO         VCC         [  0]    ***   
       CHARGE               ICHRGE              0               ***   
       CHOLESKY             ICHOLE         OFF         [  0]    ***   
       CIS_CONV             ICISTL              5               ***   
       COMM_SIZE            IPSIZE            ***               ***   
       CONSTANT             ICONST         OLD         [  1]    ***   
       CONTINUUM            ICONTU         NONE        [  0]    ***   
       CONTRACTION          ICNTYP         GENERAL     [  1]    ***   
       COORDINATES          ICOORD         INTERNAL    [  0]    ***   
       CPHF_CONVER          ICPHFT          10D- 16             ***   
       CPHF_MAXCYC          ICPHFC             64              cycles 
       CUBIC                ICUBIC         OFF         [  0]    ***   
       CURVILINEAR          ICURVY         ON          [  1]    ***   
       DBOC                 IDBOC          ON          [  1]    ***   
       DCT                  IDCT           OFF         [  0]    ***   
       DERIV_LEV            IDRLVL         SECOND      [  2]    ***   
       DEVMEM_SIZE          IDVMEM          50000000           MByte  
       DIAG_MRCC            IEOMST          10D-  0             ***   
       DIFF_TYPE            IDIFTY         RELAXED     [  0]    ***   
       DIRECT               IDIRCT         OFF         [  0]    ***   
       DROPMO               IDRPMO      NONE         
       ECP                  IECP           OFF         [  0]    ***   
       EIGENVECTOR          IVEC                1               ***   
       EL_ANHARM            IELANH         OFF         [  0]    ***   
       EOMFOLLOW            IEOMSR         ENERGY      [  0]    ***   
       EOMIP                IEOMIP         OFF         [  0]    ***   
       EOMLEVEL             HBARFM         SAME        [  0]    ***   
       EOM_MRCC             IMRCCE         NEW         [  1]    ***   
       EOM_NONIT            EOMNON         OFF         [  0]    ***   
       EOM_NSING            IEOMSI          10D-  0             ***   
       EOM_NSTATES          IMRCCD         DAVIDSON    [  0]    ***   
       EOM_NTRIP            IEOMTR          10D-  0             ***   
       EOM_ORDER            IEXORD         ENERGY      [  0]    ***   
       EOM_PROPSTA          IEOMST              0               ***   
       ESTATE_CONV          IEXTOL          10D-  5             ***   
       ESTATE_DIAG          IEXDIG         ITERATIVE   [  0]    ***   
       ESTATE_LOCK          IESLOC         ON          [  1]    ***   
       ESTATE_MAXC          IEXMXC             40               ***   
       ESTATE_PROP          IEXPRP         OFF         [  0]    ***   
       EVAL_HESS            IRECAL              0            # of cyc.
       EXCITATION           IEXCIT              0               ***   
       EXCITE               IEXCIT         NONE        [  0]    ***   
       EXTERN_POT           IEXPOT         OFF         [  0]    ***   
       FCGRADNEW            IFCGNW         OFF         [  0]    ***   
       FC_FIELD             IFINFC              0             x 10-6  
       FD_CALTYPE           IFDCAL         GRADONLY    [  0]    ***   
       FD_PROJECT           IFDPRJ         OFF         [  1]    ***   
       FD_STEPSIZE          IDISFD              0            10-4 bohr
       FD_USEGROUP          IFDGRP         FULL        [  0]    ***   
       FILE_RECSIZ          IFLREC              4096           words  
       FINITE_PERT          IFIPER              0             x 10-6  
       FIXGEOM              IFIXGM         OFF         [  0]    ***   
       FOCK                 IFOCK          AO          [  1]    ***   
       FREQ_ALGORI          IVIALG         STANDARD    [  0]    ***   
       FROZEN_CORE          IFROCO         OFF         [  0]    ***   
       GAMMA_ABCD           IGABCD         STORE       [  0]    ***   
       GAMMA_ABCI           IGABCI         STORE       [  0]    ***   
       GENBAS_1             IGNBS1              0               ***   
       GENBAS_2             IGNBS2              0               ***   
       GENBAS_3             IGNBS3              0               ***   
       GENBAS_4             IGNBS4              0               ***   
       GEO_CONV             ICONTL              5              H/bohr 
       GEO_MAXCYC           IOPTCY             50               ***   
       GEO_MAXSTEP          IMXSTP            300            millibohr
       GEO_METHOD           INR            SINGLE_POINT[  5]    ***   
       GIAO                 IGIAO          OFF         [  1]    ***   
       GIMIC                IGIMIC         OFF         [  0]    ***   
       GRID                 IGRID          OFF         [  0]    ***   
       GRID_ALGO            IGALGO         SERIAL      [  0]    ***   
       GUESS                IGUESS         MOREAD      [  0]    ***   
       HBAR                 IHBAR          OFF         [  0]    ***   
       HESS_TYPE            IHESTP         SCF         [  0]    ***   
       HF2_FILE             IHF2Fl         USE         [  1]    ***   
       HFSTABILITY          ISTABL         OFF         [  0]    ***   
       INCORE               INCORE         OFF         [  0]    ***   
       INPUT_MRCC           IMRCC          ON          [  1]    ***   
       INTEGRALS            INTTYP         VMOL        [  1]    ***   
       JODA_PRINT           IJPRNT              0               ***   
       KEYWORD_OUT          IDMPKW         NO          [  0]    ***   
       LINDEP_TOL           ILINDP              8               ***   
       LINEQ_CONV           IZTACN          10D-  7           cycles  
       LINEQ_EXPOR          ILMAXD              5               ***   
       LINEQ_MAXCY          ILMAXC            100               ***   
       LINEQ_TYPE           ILTYPE         DIIS        [  1]    ***   
       LOCK_ORBOCC          ILOCOC         OFF         [  0]    ***   
       MEMORY_SIZE          IMEMSZ         500000000           words  
       MEM_UNIT             IMEMU          INTEGERWORDS[  0]    ***   
       MRCC                 IMRCCC         OFF         [  0]    ***   
       MULTIPLICTY          IMULTP              1               ***   
       NACOUPLING           IVCOUP         OFF         [  0]    ***   
       NEGEVAL              IDIE           ABORT       [  0]    ***   
       NEWNORM              INEWNO         OFF         [  0]    ***   
       NON-HF               INONHF         OFF         [  0]    ***   
       NTOP_TAMP            ITOPT2             15               ***   
       NUC_MODEL            INUCMO         POINT       [  0]    ***   
       OCCUPATION           IOCCU   ESTIMATED BY SCF 
       OPEN-SHELL           IOPEN          SPIN-ORBITAL[  0]    ***   
       OPTVIB               IOPTVB         OFF         [  0]    ***   
       ORBITALS             IORBTP         STANDARD    [  0]    ***   
       PARALLEL             IPARAL         ON          [  1]    ***   
       PARA_INT             IPINTS         ON          [  1]    ***   
       PARA_PRINT           IPPRIN              0               ***   
       PERT_ORB             IPTORB         STANDARD    [  0]    ***   
       POINTS               IGRDFD              0               ***   
       PRINT                IPRNT               0               ***   
       PROPS                IPROPS         OFF         [  0]    ***   
       PROP_INTEGR          IINTYP         INTERNAL    [  0]    ***   
       PSI                  IPSI           OFF         [  0]    ***   
       QC_ALG               IQCALG         FLM         [  0]    ***   
       QC_LINALG            IQCLIN         TRIDIAG     [  2]    ***   
       QC_MAXCYC            IQCMAX          10D-100           cycles  
       QC_MAXSCFCY          IQCMSC          10D- 15           cycles  
       QC_RTRUST            IQCRTR          10D-  0           x 10-3  
       QC_SKIPSCF           IQCSKI         OFF         [  0]    ***   
       QC_START             IQCSTA          10D-  1             ***   
       QRHFGUESS            IQGUES         OFF         [  0]    ***   
       QUARTIC              IQUART         OFF         [  0]    ***   
       RAMAN_INT            IRAMIN         OFF         [  0]    ***   
       RAMAN_ORB            IRAMRE         UNRELAXED   [  0]    ***   
       RDO                  IRDOFM         ON          [  1]    ***   
       REDUCE_REPR          REDREP         Ir          [  0]    ***   
       REFERENCE            IREFNC         RHF         [  0]    ***   
       RELATIVIST           IRELAT         OFF         [  0]    ***   
       RELAX_DENS           IRDENS         ON          [  1]    ***   
       RESET_FLAGS          IRESET         OFF         [  0]    ***   
       RESTART_CC           ICCRES         OFF         [  0]    ***   
       ROT_EVEC             ROTVEC              0               ***   
       SAVE_INTS            ISVINT         OFF         [  0]    ***   
       SCALE_ON             ISTCRT              0               ***   
       SCF_CONV             ISCFCV          10D- 10             ***   
       SCF_DAMPING          IDAMP               0             x 10-3  
       SCF_EXPORDE          IRPPOR              6               ***   
       SCF_EXPSTAR          IRPPLS              8               ***   
       SCF_EXTRAPO          IRPP           ON          [  1]    ***   
       SCF_MAXCYC           ISCFCY            150              cycles 
       SCF_NOSTOP           ISCFST         OFF         [  0]    ***   
       SCF_PRINT            ISCFPR              0               ***   
       SCF_PROG             ISCFPR         SCF         [  0]    ***   
       SD_FIELD             IFINSD              0             x 10-6  
       SOPERT               IPERSO         OFF         [  0]    ***   
       SPHERICAL            IDFGHI         ON          [  1]    ***   
       SPINORBIT            ISOCAL         OFF         [  0]    ***   
       SPINROTATIO          ISRCON         OFF         [  0]    ***   
       SPIN_FLIP            ISPFLP         OFF         [  0]    ***   
       SPIN_ORBIT           ISPORB         OFF         [  0]    ***   
       SPIN_SCAL            ISCSMP         OFF         [  0]    ***   
       STEEPSCALE           ISTPSC              1000          x 10-3  
       SUBGROUP             ISUBGP         DEFAULT     [  0]    ***   
       SUBGRPAXIS           ISBXYZ         X           [  0]    ***   
       SYMMETRY             ISYM           ON          [  0]    ***   
       SYM_CHECK            ISYMCK         OVERRIDE    [  1]    ***   
       T3_EXTRAPOL          IT3EXT         OFF         [  0]    ***   
       T4_EXTRAPOL          IT4EXP         OFF         [  0]    ***   
       TAMP_SUM             IEVERY              5               ***   
       TESTSUITE            ITESTS         OFF         [  0]    ***   
       THERMOCH             ITHERM         OFF         [  0]    ***   
       TOL_CHOLESK          ITOLCH          10D-  4             ***   
       TRANGRAD             IRESRM         OFF         [  0]    ***   
       TRANS_INV            ITRAIN         IGNORE      [  1]    ***   
       TREAT_PERT           ITREAT         SIMULTANEOUS[  0]    ***   
       TRIP_ALGORI          ITRALG         NORMAL      [  0]    ***   
       UIJ_THRESHO          IUIJTH              1               ***   
       UNITS                IUNITS         ANGSTROM    [  0]    ***   
       UNOS                 IUNOS          OFF         [  0]    ***   
       UPDATE_HESS          IHUPDT         ON          [  1]    ***   
       VIBPHASE             ISETPH         STANDARD    [  0]    ***   
       VIBRATION            IVIB           ANALYTIC    [  1]    ***   
       VIB_ALGORIT          IGEALG         STANDARD    [  0]    ***   
       VNATORB              IVNORB         OFF         [  0]    ***   
       VTRAN                IVTRAN         FULL/PARTIAL[  0]    ***   
       XFIELD               IXEFLD              0             x 10-6  
       XFORM_TOL            IXFTOL          10D- 11             ***   
       YFIELD               IYEFLD              0             x 10-6  
       ZFIELD               IZEFLD              0             x 10-6  
       ZSCALE_EXP           IZEXPS         OFF         [  0]    ***   
    -------------------------------------------------------------------
   3 entries found in Z-matrix 
   Job Title : Hypochlorous acid DBOC calculation                                              
   There are  3 unique internal coordinates.
   Of these,  0 will be optimized.
   User supplied Z-matrix: 
--------------------------------------------------------------------------------
       SYMBOL    BOND      LENGTH    ANGLE     ANGLE     DIHED     ANGLE
                  TO      (ANGST)    WRT      (DEG)      WRT      (DEG)
--------------------------------------------------------------------------------
        O    
        H          1         ROH  
        CL         1         ROCL       2        A    
                  *Initial values for internal coordinates* 
                      Name             Value
                        ROH             0.9600000000
                        ROCL            1.6830000000
                        A             114.5000000000
--------------------------------------------------------------------------------
   Rotational constants (in cm-1): 
          0.4925708052             0.5028458628            24.1056743230
   Rotational constants (in MHz): 
      14766.9033115937         15074.9418313473        722670.0369468540
********************************************************************************
   The full molecular point group is C s .
   The largest Abelian subgroup of the full molecular point group is C s .
   The computational point group is C s .
********************************************************************************
--------------------------------------------------------------------------------
   Analysis of internal coordinates specified by Z-matrix 
--------------------------------------------------------------------------------
   *The nuclear repulsion energy is   51.157396945387561 a.u.
   *There are   3 degrees of freedom within the tot. symm. molecular subspace.
   *Z-matrix requests optimization of   0 coordinates.
   *The optimization is constrained.
   *The following   3 parameters can have non-zero 
    derivatives within the totally symmetric subspace:
             A    [ 3]  ROH  [ 1]  ROCL [ 2]
   *The following   0 parameters are to be optimized:

   *The following coordinates must be varied in an  unconstrained optimization.
             A    [ 3]  ROH  [ 1]  ROCL [ 2]
--------------------------------------------------------------------------------


 ----------------------------------------------------------------
         Coordinates used in calculation (QCOMP) 
 ----------------------------------------------------------------
 Z-matrix   Atomic            Coordinates (in bohr)
  Symbol    Number           X              Y              Z
 ----------------------------------------------------------------
     O         8        -2.12225084     0.11886163    -0.00000000
     H         1        -2.94141144    -1.49980159     0.00000000
     CL       17         1.05550072    -0.01114260     0.00000000
 ----------------------------------------------------------------
 
   Interatomic distance matrix (Angstroms) 
 
                 O             H             CL   
                [ 1]        [ 2]        [ 3]
  O    [ 1]     0.00000
  H    [ 2]     0.96000     0.00000
  CL   [ 3]     1.68300     2.25701     0.00000
 rotcon2
   Rotational constants (in cm-1): 
         24.1056743230             0.5028458628             0.4925708052
   Rotational constants (in MHz): 
     722670.0369468599         15074.9418313473         14766.9033115937
  ECPDATA file not present.   Using default ECPDATA. 
  @GTFLGS-I, Hessian will be transformed to curvilinear coordinates.
  There are  124 basis functions.
 @CHECKOUT-I, Total execution time (CPU/WALL):        0.23/       0.37 seconds.
--executable xjoda finished with status     0 in        0.51 seconds (walltime).
 --invoking executable--
/home/asmola/.local/bin/xvmol
 SERIAL VERSION OF MOLECULE STARTED
********************************************************************************
                    INPUT FROM MOL FILE
********************************************************************************
INTGRL        1    0    1    0    0    0    0    0    0                         
         *** CFOUR Program System (Release V0.1) ***                            
Hypochlorous acid DBOC calculation                                              
    3    1 Z          0.10E-08              0    0                              
   9999.00      3.00                                                            
          8.00000000    1    4    1    1    1    1                              
O #1  -2.122250842502360   0.118861632206012  -0.000000000000001                
   11    5                                                                      
   15330.0000000000       5.080000000000000E-004 -1.150000000000000E-004        
  0.000000000000000E+000  0.000000000000000E+000  0.000000000000000E+000        
   2299.00000000000       3.929000000000000E-003 -8.950000000000000E-004        
  0.000000000000000E+000  0.000000000000000E+000  0.000000000000000E+000        
   522.400000000000       2.024300000000000E-002 -4.636000000000000E-003        
  0.000000000000000E+000  0.000000000000000E+000  0.000000000000000E+000        
   147.300000000000       7.918100000000000E-002 -1.872400000000000E-002        
  0.000000000000000E+000  0.000000000000000E+000  0.000000000000000E+000        
   47.5500000000000       0.230687000000000      -5.846300000000000E-002        
  0.000000000000000E+000  0.000000000000000E+000  0.000000000000000E+000        
   16.7600000000000       0.433118000000000      -0.136463000000000             
  0.000000000000000E+000  0.000000000000000E+000  0.000000000000000E+000        
   6.20700000000000       0.350260000000000      -0.175740000000000             
  0.000000000000000E+000  0.000000000000000E+000  0.000000000000000E+000        
   1.75200000000000       4.272800000000000E-002  0.160934000000000             
   1.00000000000000       0.000000000000000E+000  0.000000000000000E+000        
  0.688200000000000      -8.154000000000000E-003  0.603418000000000             
  0.000000000000000E+000  0.000000000000000E+000  0.000000000000000E+000        
  0.238400000000000       2.381000000000000E-003  0.378765000000000             
  0.000000000000000E+000   1.00000000000000       0.000000000000000E+000        
  7.376000000000001E-002  0.000000000000000E+000  0.000000000000000E+000        
  0.000000000000000E+000  0.000000000000000E+000   1.00000000000000             
    6    4                                                                      
   34.4600000000000       1.592800000000000E-002  0.000000000000000E+000        
  0.000000000000000E+000  0.000000000000000E+000                                
   7.74900000000000       9.974000000000000E-002  0.000000000000000E+000        
  0.000000000000000E+000  0.000000000000000E+000                                
   2.28000000000000       0.310492000000000       0.000000000000000E+000        
  0.000000000000000E+000  0.000000000000000E+000                                
  0.715600000000000       0.491026000000000        1.00000000000000             
  0.000000000000000E+000  0.000000000000000E+000                                
  0.214000000000000       0.336337000000000       0.000000000000000E+000        
   1.00000000000000       0.000000000000000E+000                                
  5.974000000000000E-002  0.000000000000000E+000  0.000000000000000E+000        
  0.000000000000000E+000   1.00000000000000                                     
    3    3                                                                      
   2.31400000000000        1.00000000000000       0.000000000000000E+000        
  0.000000000000000E+000                                                        
  0.645000000000000       0.000000000000000E+000   1.00000000000000             
  0.000000000000000E+000                                                        
  0.214000000000000       0.000000000000000E+000  0.000000000000000E+000        
   1.00000000000000                                                             
    2    2                                                                      
   1.42800000000000        1.00000000000000       0.000000000000000E+000        
  0.500000000000000       0.000000000000000E+000   1.00000000000000             
          1.00000000    1    3    1    1    1                                   
H #2  -2.941411437666602  -1.499801594820640   0.000000000000004                
    6    4                                                                      
   33.8700000000000       6.068000000000000E-003  0.000000000000000E+000        
  0.000000000000000E+000  0.000000000000000E+000                                
   5.09500000000000       4.530800000000000E-002  0.000000000000000E+000        
  0.000000000000000E+000  0.000000000000000E+000                                
   1.15900000000000       0.202822000000000       0.000000000000000E+000        
  0.000000000000000E+000  0.000000000000000E+000                                
  0.325800000000000       0.503903000000000        1.00000000000000             
  0.000000000000000E+000  0.000000000000000E+000                                
  0.102700000000000       0.383421000000000       0.000000000000000E+000        
   1.00000000000000       0.000000000000000E+000                                
  2.526000000000000E-002  0.000000000000000E+000  0.000000000000000E+000        
  0.000000000000000E+000   1.00000000000000                                     
    3    3                                                                      
   1.40700000000000        1.00000000000000       0.000000000000000E+000        
  0.000000000000000E+000                                                        
  0.388000000000000       0.000000000000000E+000   1.00000000000000             
  0.000000000000000E+000                                                        
  0.102000000000000       0.000000000000000E+000  0.000000000000000E+000        
   1.00000000000000                                                             
    2    2                                                                      
   1.05700000000000        1.00000000000000       0.000000000000000E+000        
  0.247000000000000       0.000000000000000E+000   1.00000000000000             
         17.00000000    1    4    1    1    1    1                              
CL#3   1.055500717420479  -0.011142603625954   0.000000000000000                
   16    6                                                                      
   456100.000000000       4.929700000000000E-005 -1.383040000000000E-005        
  0.000000000000000E+000  4.185460000000000E-006  0.000000000000000E+000        
  0.000000000000000E+000                                                        
   68330.0000000000       3.830290000000000E-004 -1.072790000000000E-004        
  0.000000000000000E+000  3.243950000000000E-005  0.000000000000000E+000        
  0.000000000000000E+000                                                        
   15550.0000000000       2.008540000000000E-003 -5.650830000000000E-004        
  0.000000000000000E+000  1.711050000000000E-004  0.000000000000000E+000        
  0.000000000000000E+000                                                        
   4405.00000000000       8.385580000000000E-003 -2.361350000000000E-003        
  0.000000000000000E+000  7.141760000000000E-004  0.000000000000000E+000        
  0.000000000000000E+000                                                        
   1439.00000000000       2.947030000000000E-002 -8.458860000000000E-003        
  0.000000000000000E+000  2.567050000000000E-003  0.000000000000000E+000        
  0.000000000000000E+000                                                        
   520.400000000000       8.783249999999999E-002 -2.596380000000000E-002        
  0.000000000000000E+000  7.885520000000000E-003  0.000000000000000E+000        
  0.000000000000000E+000                                                        
   203.100000000000       0.211473000000000      -6.863619999999999E-002        
  0.000000000000000E+000  2.108670000000000E-002  0.000000000000000E+000        
  0.000000000000000E+000                                                        
   83.9600000000000       0.365364000000000      -0.141874000000000             
  0.000000000000000E+000  4.422640000000000E-002  0.000000000000000E+000        
  0.000000000000000E+000                                                        
   36.2000000000000       0.340884000000000      -0.199319000000000             
  0.000000000000000E+000  6.516700000000000E-002  0.000000000000000E+000        
  0.000000000000000E+000                                                        
   15.8300000000000       0.102133000000000      -1.956620000000000E-002        
  0.000000000000000E+000  6.030120000000000E-003  0.000000000000000E+000        
  0.000000000000000E+000                                                        
   6.33400000000000       3.116750000000000E-003  0.499741000000000             
  0.000000000000000E+000 -0.206495000000000       0.000000000000000E+000        
  0.000000000000000E+000                                                        
   2.69400000000000       1.057510000000000E-003  0.563736000000000             
  0.000000000000000E+000 -0.405871000000000       0.000000000000000E+000        
  0.000000000000000E+000                                                        
  0.976800000000000      -3.780000000000000E-004  7.903250000000001E-002        
   1.00000000000000       7.595580000000000E-002  0.000000000000000E+000        
  0.000000000000000E+000                                                        
  0.431300000000000       1.561360000000000E-004 -8.350910000000000E-003        
  0.000000000000000E+000  0.725661000000000       0.000000000000000E+000        
  0.000000000000000E+000                                                        
  0.162500000000000      -5.141260000000000E-005  2.324560000000000E-003        
  0.000000000000000E+000  0.394423000000000        1.00000000000000             
  0.000000000000000E+000                                                        
  5.910000000000000E-002  0.000000000000000E+000  0.000000000000000E+000        
  0.000000000000000E+000  0.000000000000000E+000  0.000000000000000E+000        
   1.00000000000000                                                             
   10    5                                                                      
   663.300000000000       2.404480000000000E-003  0.000000000000000E+000        
 -6.521450000000000E-004  0.000000000000000E+000  0.000000000000000E+000        
   156.800000000000       1.921480000000000E-002  0.000000000000000E+000        
 -5.194450000000000E-003  0.000000000000000E+000  0.000000000000000E+000        
   49.9800000000000       8.850970000000000E-002  0.000000000000000E+000        
 -2.469380000000000E-002  0.000000000000000E+000  0.000000000000000E+000        
   18.4200000000000       0.256020000000000       0.000000000000000E+000        
 -7.281670000000000E-002  0.000000000000000E+000  0.000000000000000E+000        
   7.24000000000000       0.436927000000000       0.000000000000000E+000        
 -0.134030000000000       0.000000000000000E+000  0.000000000000000E+000        
   2.92200000000000       0.350334000000000       0.000000000000000E+000        
 -9.477420000000000E-002  0.000000000000000E+000  0.000000000000000E+000        
   1.02200000000000       5.854950000000000E-002   1.00000000000000             
  0.262289000000000       0.000000000000000E+000  0.000000000000000E+000        
  0.381800000000000      -4.584230000000000E-003  0.000000000000000E+000        
  0.564667000000000       0.000000000000000E+000  0.000000000000000E+000        
  0.130100000000000       2.269700000000000E-003  0.000000000000000E+000        
  0.341250000000000        1.00000000000000       0.000000000000000E+000        
  4.190000000000000E-002  0.000000000000000E+000  0.000000000000000E+000        
  0.000000000000000E+000  0.000000000000000E+000   1.00000000000000             
    4    4                                                                      
   4.61000000000000        1.00000000000000       0.000000000000000E+000        
  0.000000000000000E+000  0.000000000000000E+000                                
   1.01100000000000       0.000000000000000E+000   1.00000000000000             
  0.000000000000000E+000  0.000000000000000E+000                                
  0.339000000000000       0.000000000000000E+000  0.000000000000000E+000        
   1.00000000000000       0.000000000000000E+000                                
  0.130000000000000       0.000000000000000E+000  0.000000000000000E+000        
  0.000000000000000E+000   1.00000000000000                                     
    2    2                                                                      
  0.706000000000000        1.00000000000000       0.000000000000000E+000        
  0.312000000000000       0.000000000000000E+000   1.00000000000000             
FINISH                                                                          
 
********************************************************************************
 ONE- AND TWO-ELECTRON INTEGRALS OVER SYMMETRY-ADAPTED AOS ARE CALCULATED.

  SPHERICAL HARMONICS ARE USED.
  
  INTEGRALS LESS THAN  0.10E-13 ARE NEGLECTED.

  NUCLEAR REPULSION ENERGY :   51.1573969454 A.U.
  @MOLECU-I, ONE ELECTRON INTEGRALS (CPU/WALL):        0.04/       0.05 SECONDS.
  @TWOEL-I,    5908217 INTEGRALS OF SYMMETRY TYPE  I I I I
  @TWOEL-I,    5650228 INTEGRALS OF SYMMETRY TYPE  I J I J
  @TWOEL-I,    2920898 INTEGRALS OF SYMMETRY TYPE  I I J J
  @TWOEL-I, TOTAL NUMBER OF 2-E INTEGRALS   14479343.
  @MOLECU-I, TWO ELECTRON INTEGRALS (CPU/WALL):       36.60/       5.52 SECONDS.
 @CHECKOUT-I, Total execution time (CPU/WALL):       36.66/       5.59 seconds.

Running with 14 threads/proc

--executable xvmol finished with status     0 in        5.83 seconds (walltime).
 --invoking executable--
/home/asmola/.local/bin/xvmol2ja
 @GETMEM-I,  Allocated    3814 MB of main memory.
 @CHECKOUT-I, Total execution time (CPU/WALL):        0.09/       0.04 seconds.
--executable xvmol2ja finished with status     0 in        0.08 seconds (walltime).
 --invoking executable--
/home/asmola/.local/bin/xvscf
  There are  124 functions in the AO basis.

  There are 2 irreducible representations.

       Irrep        # of functions
         1                 82
         2                 42


  Parameters for SCF calculation: 
        SCF reference function:  RHF  
  Maximum number of iterations:  150
     Full symmetry point group: C s 
     Computational point group: C s 
        Initial density matrix: MOREAD                 
     SCF convergence tolerance: 10**(-10)
  DIIS convergence acceleration:  ON
          Latest start for DIIS:   8
                     DIIS order:   6

  Memory information:     774068 words required.
  Fock matrices are constructed from AO integral file.
 @GETMEM-I,  Allocated       5 MB of main memory.
  Initialization and symmetry analysis required      0.002 seconds.

  @INITGES-I, Occupancies from core Hamiltonian:

          Alpha population by irrep:  10    3
           Beta population by irrep:  10    3


 total no. of electrons in initial guess :  0.000000000000000E+000
  --------------------------------------------------------------------
  Iteration         Total Energy            Largest Density Difference
  --------------------------------------------------------------------
       0            51.157396945387553              0.0000000000D+00
   current occupation vector 
    10  3
    10  3
       1          -414.740157140031954              0.1579166786D+02
   current occupation vector 
    10  3
    10  3
       2          -338.014626541804205              0.1578716981D+02
   current occupation vector 
    10  3
    10  3
       3          -435.075727430815732              0.1057731948D+02
   current occupation vector 
    10  3
    10  3
       4          -336.076515456951142              0.1057823922D+02
   current occupation vector 
    10  3
    10  3
       5          -435.396570075330146              0.1051784479D+02
   current occupation vector 
    10  3
    10  3
       6          -336.032356336234841              0.1051784622D+02
   current occupation vector 
    10  3
    10  3
       7          -435.409159824408903              0.1051546567D+02
   current occupation vector 
    10  3
    10  3
       8          -336.030742482241294              0.1051546545D+02
   current occupation vector 
    10  3
    10  3
       9          -472.385815989791070              0.7892785991D+01
   current occupation vector 
    10  3
    10  3
      10          -486.627232081888621              0.2591593371D+01
   current occupation vector 
    10  3
    10  3
      11          -515.879926872984925              0.2240103191D+01
   current occupation vector 
    11  2
    11  2
      12          -532.161968410321037              0.1592176912D+01
   current occupation vector 
    10  3
    10  3
      13          -534.082916210723056              0.7106309596D+00
   current occupation vector 
    10  3
    10  3
      14          -534.814826975835217              0.9851632118D+00
   current occupation vector 
    10  3
    10  3
      15          -534.906971169592452              0.3699144075D+00
   current occupation vector 
    10  3
    10  3
      16          -534.917186605404254              0.5921341250D-01
   current occupation vector 
    10  3
    10  3
      17          -534.921062715633639              0.6402653991D-01
   current occupation vector 
    10  3
    10  3
      18          -534.921473924492375              0.2201068793D-01
   current occupation vector 
    10  3
    10  3
      19          -534.921548378733291              0.1024233279D-01
   current occupation vector 
    10  3
    10  3
      20          -534.921557641108620              0.4481257368D-02
   current occupation vector 
    10  3
    10  3
      21          -534.921558693491761              0.1460250317D-02
   current occupation vector 
    10  3
    10  3
      22          -534.921558999396325              0.1223416812D-02
   current occupation vector 
    10  3
    10  3
      23          -534.921559002250433              0.9646646656D-04
   current occupation vector 
    10  3
    10  3
      24          -534.921559002345361              0.1241921917D-04
   current occupation vector 
    10  3
    10  3
      25          -534.921559002359913              0.4284743738D-05
   current occupation vector 
    10  3
    10  3
      26          -534.921559002354343              0.1962348337D-05
   current occupation vector 
    10  3
    10  3
      27          -534.921559002360254              0.4990720907D-06
   current occupation vector 
    10  3
    10  3
      28          -534.921559002361619              0.1464690125D-06
   current occupation vector 
    10  3
    10  3
      29          -534.921559002357981              0.6510049860D-07
   current occupation vector 
    10  3
    10  3
      30          -534.921559002357640              0.6848664053D-07
   current occupation vector 
    10  3
    10  3
      31          -534.921559002360368              0.2375591046D-07
   current occupation vector 
    10  3
    10  3
      32          -534.921559002358890              0.6141751274D-08
   current occupation vector 
    10  3
    10  3
      33          -534.921559002361164              0.1154559420D-08
   current occupation vector 
    10  3
    10  3
      34          -534.921559002361619              0.2852299508D-09
   current occupation vector 
    10  3
    10  3
      35          -534.921559002359913              0.1194568888D-09
   current occupation vector 
    10  3
    10  3

  SCF has converged.

 Density matrix saved to file den.dat
 total electron number:   26.0000000000000     
     E(SCF)=      -534.921559002360482              0.3601918763D-10

  Eigenvector printing suppressed.

 @PUTMOS-I, Writing converged MOs to NEWMOS. 
 @PUTMOS-I, Symmetry   1 Full Blocks 20 Partial Blocksize   2
 @PUTMOS-I, Symmetry   2 Full Blocks 10 Partial Blocksize   2
 @PUTFOCK-I, Writing converged Fock matrix to NEWFOCK. 
 @PUTFOCK-I, Symmetry   1 Full Blocks 20 Partial Blocksize   2
 @PUTFOCK-I, Symmetry   2 Full Blocks 10 Partial Blocksize   2


 
  ORBITAL EIGENVALUES (ALPHA)  (1H = 27.2113834 eV)

       MO #        E(hartree)               E(eV)           FULLSYM    COMPSYM
       ----   --------------------   --------------------   -------   ---------
    1     1        -104.8950636420       -2854.3397935312     A'        A'  (1)
    2     2         -20.6359694528        -561.5332766109     A'        A'  (1)
    3     3         -10.6134751237        -288.8073407987     A'        A'  (1)
    4     4          -8.0808137189        -219.8901202897     A'        A'  (1)
    5     5          -8.0775526867        -219.8013830913     A'        A'  (1)
    6    83          -8.0773966525        -219.7971371838     A''       A'' (2)
    7     6          -1.4080794258         -38.3157891139     A'        A'  (1)
    8     7          -1.0660026306         -29.0074062862     A'        A'  (1)
    9     8          -0.7231161827         -19.6769916914     A'        A'  (1)
   10    84          -0.6110434989         -16.6273389236     A''       A'' (2)
   11     9          -0.6009889497         -16.3537407292     A'        A'  (1)
   12    10          -0.4654334932         -12.6650892311     A'        A'  (1)
   13    85          -0.4425914089         -12.0435245177     A''       A'' (2)
  +++++++++++++++++++++++++++++++++++++++++++++++++++++++++++++++++++++++++++++
   14    11           0.0280486540           0.7632426778     A'        A'  (1)
   15    12           0.0617369546           1.6799479404     A'        A'  (1)
   16    13           0.1106038441           3.0096836075     A'        A'  (1)
   17    86           0.1162746588           3.1639943216     A''       A'' (2)
   18    14           0.1395436072           3.7971745975     A'        A'  (1)
   19    15           0.1566645915           4.2630602654     A'        A'  (1)
   20    16           0.1728889234           4.7045467799     A'        A'  (1)
   21    17           0.1792563535           4.8778133617     A'        A'  (1)
   22    87           0.1873260856           5.0974019368     A''       A'' (2)
   23    18           0.2483837487           6.7588654156     A'        A'  (1)
   24    88           0.2622189918           7.1353415194     A''       A'' (2)
   25    19           0.3039292121           8.2703343174     A'        A'  (1)
   26    20           0.3220655527           8.7638492342     A'        A'  (1)
   27    89           0.3722726840          10.1300547331     A''       A'' (2)
   28    21           0.3878929346          10.5551033611     A'        A'  (1)
   29    90           0.4146319384          11.2827086445     A''       A'' (2)
   30    22           0.4229996726          11.5104062702     A'        A'  (1)
   31    23           0.4399433648          11.9714675745     A'        A'  (1)
   32    24           0.4898361494          13.3291192655     A'        A'  (1)
   33    91           0.6126718698          16.6716491474     A''       A'' (2)
   34    25           0.6192440714          16.8504878454     A'        A'  (1)
   35    26           0.6788526331          18.4725192717     A'        A'  (1)
   36    27           0.7043284421          19.1657512773     A'        A'  (1)
   37    92           0.7133981725          19.4125511886     A''       A'' (2)
   38    28           0.7203920287          19.6028636913     A'        A'  (1)
   39    93           0.7577567715          20.6196100329     A''       A'' (2)
   40    29           0.7871301363          21.4188999244     A'        A'  (1)
   41    30           0.8535521019          23.2263334962     A'        A'  (1)
   42    94           0.8572922617          23.3281084187     A''       A'' (2)
   43    95           0.8864795101          24.1223338249     A''       A'' (2)
   44    31           0.8919806999          24.2720288117     A'        A'  (1)
   45    32           0.9111589275          24.7938949150     A'        A'  (1)
   46    96           0.9260008912          25.1977652782     A''       A'' (2)
   47    33           0.9275894301          25.2409916199     A'        A'  (1)
   48    34           0.9659105463          26.2837622067     A'        A'  (1)
   49    35           0.9921376947          26.9974391972     A'        A'  (1)
   50    97           1.0128983378          27.5623650150     A''       A'' (2)
   51    36           1.0198652508          27.7519443552     A'        A'  (1)
   52    98           1.1346691196          30.8759164444     A''       A'' (2)
   53    37           1.1480991486          31.2413661132     A'        A'  (1)
   54    99           1.2218923958          33.2493824567     A''       A'' (2)
   55    38           1.2309027454          33.4945665335     A'        A'  (1)
   56    39           1.2835784925          34.9279464841     A'        A'  (1)
   57    40           1.3455772695          36.6150189748     A'        A'  (1)
   58   100           1.3823618078          37.6159771507     A''       A'' (2)
   59    41           1.4040883175          38.2071855346     A'        A'  (1)
   60   101           1.5097493186          41.0823675458     A''       A'' (2)
   61   102           1.5620697790          42.5060796540     A''       A'' (2)
   62    42           1.6024367383          43.6045204591     A'        A'  (1)
   63    43           1.6759682995          45.6054159626     A'        A'  (1)
   64    44           1.7367198825          47.2585505801     A'        A'  (1)
   65    45           1.9094396699          51.9584949362     A'        A'  (1)
   66    46           2.0951264881          57.0112901401     A'        A'  (1)
   67   103           2.1603283160          58.7855220759     A''       A'' (2)
   68    47           2.2284829708          60.6401045193     A'        A'  (1)
   69   104           2.2526643063          61.2981121102     A''       A'' (2)
   70    48           2.2752108851          61.9116357105     A'        A'  (1)
   71   105           2.2983206649          62.5404847899     A''       A'' (2)
   72    49           2.3311311154          63.4333025367     A'        A'  (1)
   73    50           2.3938141958          65.1389958705     A'        A'  (1)
   74    51           2.4128069589          65.6558152300     A'        A'  (1)
   75   106           2.4345909616          66.2485880773     A''       A'' (2)
   76   107           2.4586989452          66.9045996639     A''       A'' (2)
   77    52           2.4614645726          66.9798562117     A'        A'  (1)
   78   108           2.4970240450          67.9474786476     A''       A'' (2)
   79    53           2.5049373479          68.1628105677     A'        A'  (1)
   80    54           2.5517721655          69.4372507448     A'        A'  (1)
   81   109           2.7481406538          74.7807089670     A''       A'' (2)
   82    55           2.8493458375          77.5346420245     A'        A'  (1)
   83   110           2.9258840935          79.6173538514     A''       A'' (2)
   84    56           2.9578556450          80.4873439982     A'        A'  (1)
   85    57           2.9752293573          80.9601067452     A'        A'  (1)
   86   111           3.0562610782          83.1650919682     A''       A'' (2)
   87    58           3.0662570074          83.4370950319     A'        A'  (1)
   88   112           3.1286480593          85.1348418648     A''       A'' (2)
   89    59           3.1326110467          85.2426802352     A'        A'  (1)
   90    60           3.2797977330          89.2478335860     A'        A'  (1)
   91   113           3.3682445389          91.6545935342     A''       A'' (2)
   92    61           3.3978554064          92.4603462017     A'        A'  (1)
   93    62           3.6684317031          99.8231015484     A'        A'  (1)
   94    63           3.7623133300         102.3777504938     A'        A'  (1)
   95   114           4.1457196609         112.8107671622     A''       A'' (2)
   96   115           4.1800320678         113.7444552218     A''       A'' (2)
   97    64           4.2859803507         116.6274545666     A'        A'  (1)
   98   116           4.3733885897         119.0059536711     A''       A'' (2)
   99    65           4.5818016340         124.6771609269     A'        A'  (1)
  100    66           4.7303236238         128.7186497341     A'        A'  (1)
  101    67           4.8277035279         131.3684916402     A'        A'  (1)
  102    68           5.1997277038         141.4917841243     A'        A'  (1)
  103   117           5.3282621354         144.9893838232     A''       A'' (2)
  104    69           5.5726829642         151.6404127049     A'        A'  (1)
  105    70           6.1311595032         166.8373319278     A'        A'  (1)
  106    71           6.3099542606         171.7025846226     A'        A'  (1)
  107   118           6.6313423463         180.4479990419     A''       A'' (2)
  108    72           6.6734922306         181.5949557046     A'        A'  (1)
  109   119           6.7475869237         183.6111748044     A''       A'' (2)
  110    73           6.7810329483         184.5212874033     A'        A'  (1)
  111   120           7.1274273154         193.9471573361     A''       A'' (2)
  112    74           7.1702212649         195.1116399007     A'        A'  (1)
  113   121           7.2026864139         195.9950615197     A''       A'' (2)
  114    75           7.2515817251         197.3255705780     A'        A'  (1)
  115   122           7.2797048374         198.0908393684     A''       A'' (2)
  116    76           7.4464154428         202.6272655687     A'        A'  (1)
  117    77           7.6712654886         208.7457463729     A'        A'  (1)
  118    78           8.0550647047         219.1894539917     A'        A'  (1)
  119   123           8.7717505551         238.6914674437     A''       A'' (2)
  120    79           8.7725024069         238.7119263716     A'        A'  (1)
  121   124           8.8235141812         240.1000273212     A''       A'' (2)
  122    80           8.8842297081         241.7521808016     A'        A'  (1)
  123    81           9.2542275314         251.8203334276     A'        A'  (1)
  124    82          14.5481202895         395.8744789463     A'        A'  (1)


  VSCF finished.

 @CHECKOUT-I, Total execution time (CPU/WALL):       40.04/       5.13 seconds.
--executable xvscf finished with status     0 in        5.19 seconds (walltime).
 --invoking executable--
/home/asmola/.local/bin/xvtran
 @GETMEM-I,  Allocated    3814 MB of main memory.
  Full RHF integral transformation
  Transformation of IIII integrals :
  1 pass through the AO integral file was required.
     5908217 AO integrals were read.
     6200062 MO integrals were written to HF2.
  Transformation of IIJJ integrals :
  1 pass through the AO integral file was required.
     2920898 AO integrals were read.
     3072909 MO integrals were written to HF2.
  Transformation of IJIJ integrals :
  1 pass through the AO integral file was required.
     5650228 AO integrals were read.
     5932290 MO integrals were written to HF2.
  Summary of active molecular orbitals: 
------------------------------------------------------------------------
 
  Index      Eigenvalue    Symmetry    Index      Eigenvalue    Symmetry
------------------------------------------------------------------------
     1      -104.8950636        1        63         3.2797977        1
     2       -20.6359695        1        64         3.3978554        1
     3       -10.6134751        1        65         3.6684317        1
     4        -8.0808137        1        66         3.7623133        1
     5        -8.0775527        1        67         4.2859804        1
     6        -1.4080794        1        68         4.5818016        1
     7        -1.0660026        1        69         4.7303236        1
     8        -0.7231162        1        70         4.8277035        1
     9        -0.6009889        1        71         5.1997277        1
    10        -0.4654335        1        72         5.5726830        1
    11        -8.0773967        2        73         6.1311595        1
    12        -0.6110435        2        74         6.3099543        1
    13        -0.4425914        2        75         6.6734922        1
    14         0.0280487        1        76         6.7810329        1
    15         0.0617370        1        77         7.1702213        1
    16         0.1106038        1        78         7.2515817        1
    17         0.1395436        1        79         7.4464154        1
    18         0.1566646        1        80         7.6712655        1
    19         0.1728889        1        81         8.0550647        1
    20         0.1792564        1        82         8.7725024        1
    21         0.2483837        1        83         8.8842297        1
    22         0.3039292        1        84         9.2542275        1
    23         0.3220656        1        85        14.5481203        1
    24         0.3878929        1        86         0.1162747        2
    25         0.4229997        1        87         0.1873261        2
    26         0.4399434        1        88         0.2622190        2
    27         0.4898361        1        89         0.3722727        2
    28         0.6192441        1        90         0.4146319        2
    29         0.6788526        1        91         0.6126719        2
    30         0.7043284        1        92         0.7133982        2
    31         0.7203920        1        93         0.7577568        2
    32         0.7871301        1        94         0.8572923        2
    33         0.8535521        1        95         0.8864795        2
    34         0.8919807        1        96         0.9260009        2
    35         0.9111589        1        97         1.0128983        2
    36         0.9275894        1        98         1.1346691        2
    37         0.9659105        1        99         1.2218924        2
    38         0.9921377        1       100         1.3823618        2
    39         1.0198653        1       101         1.5097493        2
    40         1.1480991        1       102         1.5620698        2
    41         1.2309027        1       103         2.1603283        2
    42         1.2835785        1       104         2.2526643        2
    43         1.3455773        1       105         2.2983207        2
    44         1.4040883        1       106         2.4345910        2
    45         1.6024367        1       107         2.4586989        2
    46         1.6759683        1       108         2.4970240        2
    47         1.7367199        1       109         2.7481407        2
    48         1.9094397        1       110         2.9258841        2
    49         2.0951265        1       111         3.0562611        2
    50         2.2284830        1       112         3.1286481        2
    51         2.2752109        1       113         3.3682445        2
    52         2.3311311        1       114         4.1457197        2
    53         2.3938142        1       115         4.1800321        2
    54         2.4128070        1       116         4.3733886        2
    55         2.4614646        1       117         5.3282621        2
    56         2.5049373        1       118         6.6313423        2
    57         2.5517722        1       119         6.7475869        2
    58         2.8493458        1       120         7.1274273        2
    59         2.9578556        1       121         7.2026864        2
    60         2.9752294        1       122         7.2797048        2
    61         3.0662570        1       123         8.7717506        2
    62         3.1326110        1       124         8.8235142        2
------------------------------------------------------------------------
  -104.895063642048       -20.6359694528009       -10.6134751237491     
  -8.08081371892624       -8.07755268669363       -1.40807942583076     
  -1.06600263058367      -0.723116182745884      -0.600988949691282     
 -0.465433493214979       -8.07739665245453      -0.611043498935113     
 -0.442591408921131       2.804865399874152E-002  6.173695455543417E-002
  0.110603844108058       0.139543607233851       0.156664591531087     
  0.172888923388797       0.179256353490053       0.248383748678591     
  0.303929212119420       0.322065552688898       0.387892934583433     
  0.422999672635542       0.439943364823262       0.489836149435053     
  0.619244071414113       0.678852633112177       0.704328442093287     
  0.720392028702702       0.787130136294810       0.853552101881155     
  0.891980699947531       0.911158927515529       0.927589430088562     
  0.965910546344012       0.992137694741877        1.01986525077522     
   1.14809914857747        1.23090274541057        1.28357849252631     
   1.34557726950471        1.40408831748853        1.60243673826138     
   1.67596829945044        1.73671988246436        1.90943966987579     
   2.09512648813500        2.22848297081888        2.27521088510781     
   2.33113111539590        2.39381419580659        2.41280695894516     
   2.46146457264322        2.50493734793703        2.55177216549671     
   2.84934583754114        2.95785564500795        2.97522935732915     
   3.06625700742318        3.13261104671392        3.27979773295855     
   3.39785540641401        3.66843170305024        3.76231333000863     
   4.28598035065548        4.58180163404939        4.73032362382849     
   4.82770352793591        5.19972770382371        5.57268296417638     
   6.13115950318709        6.30995426063565        6.67349223063154     
   6.78103294826579        7.17022126485300        7.25158172509562     
   7.44641544276366        7.67126548857807        8.05506470470941     
   8.77250240690169        8.88422970813171        9.25422753139536     
   14.5481202894790       0.116274658845912       0.187326085626540     
  0.262218991752980       0.372272683979693       0.414631938355141     
  0.612671869796085       0.713398172494973       0.757756771487319     
  0.857292261689873       0.886479510074221       0.926000891165268     
   1.01289833779756        1.13466911955813        1.22189239583940     
   1.38236180784315        1.50974931858158        1.56206977900302     
   2.16032831597479        2.25266430630051        2.29832066494430     
   2.43459096156460        2.45869894523133        2.49702404500346     
   2.74814065377423        2.92588409347010        3.05626107815487     
   3.12864805928174        3.36824453894401        4.14571966092020     
   4.18003206782279        4.37338858968648        5.32826213544309     
   6.63134234630285        6.74758692365430        7.12742731544163     
   7.20268641393939        7.27970483736454        8.77175055508919     
   8.82351418124580     
 @CHECKOUT-I, Total execution time (CPU/WALL):       14.01/       7.25 seconds.
--executable xvtran finished with status     0 in        7.30 seconds (walltime).
 --invoking executable--
/home/asmola/.local/bin/xintprc
 @GETMEM-I,  Allocated    3814 MB of main memory.
  Processing integrals for CCSD calculation.
  @GMOIAA-I, Processing MO integrals for spin case AA.
  @GMOIAA-I, Generation of integral list completed.
                      TYPE                NUMBER
                      ----               --------
                      PPPP               9752772
                      PPPH               4554144
                      PPHH                534624
                      PHPH                292128
                      PHHH                 69237
                      HHHH                  2356

                     TOTAL              15205261

  @FORMT2-I, Second-order MP correlation energies:
            ------------------------------------------------
            E(SCF)                  =   -534.921559002360 a.u.
            E2(AA)                  =     -0.074389943229 a.u.
            E2(AB)                  =     -0.420376638225 a.u.
            E2(TOT)                 =     -0.569156524683 a.u.
            Total MP2 energy        =   -535.490715527043 a.u.
            ------------------------------------------------
   Largest T2 amplitudes for spin case AB:
       _       _                 _       _                 _       _
   i   j   a   b             i   j   a   b             i   j   a   b
-----------------------------------------------------------------------------
[  9   9  15  15]-0.01922 [  9   9  17  17]-0.01846 [  9   9  17  15] 0.01803
[  9   9  15  17] 0.01803 [ 13  13  90  90]-0.01700 [ 10  10  33  33]-0.01555
[ 13  13  94  94]-0.01508 [ 13  13  91  91]-0.01501 [ 13  13  95  95]-0.01282
[  8   8  25  25]-0.01268 [  9   9  18  15] 0.01266 [  9   9  15  18] 0.01266
[  9   9  18  17]-0.01263 [  9   9  17  18]-0.01263 [ 10  10  26  26]-0.01238
-----------------------------------------------------------------------------
   Norm of T2AB vector (  1067805 symmetry allowed elements):  0.3193530547.
-----------------------------------------------------------------------------
 @CHECKOUT-I, Total execution time (CPU/WALL):        3.45/       2.63 seconds.
--executable xintprc finished with status     0 in        2.84 seconds (walltime).
  calling xvcc 
 --invoking executable--
/home/asmola/.local/bin/xvcc
 @GETMEM-I,  Allocated    3814 MB of main memory.
   CCSD energy will be calculated.
   The total correlation energy is -0.569156524683 a.u.
   The total correlation energy is -0.570651486514 a.u.
  Convergence information after     1 iterations: 
  Largest element of residual vector : -0.12074412E-01.
  Largest element of DIIS residual   : -0.12074412E-01.
   The total correlation energy is -0.583240651143 a.u.
  Convergence information after     2 iterations: 
  Largest element of residual vector : -0.28115237E-02.
  Largest element of DIIS residual   : -0.26308738E-02.
   The total correlation energy is -0.583374470277 a.u.
  Convergence information after     3 iterations: 
  Largest element of residual vector : -0.19855743E-02.
  Largest element of DIIS residual   : -0.11518236E-02.
   The total correlation energy is -0.584666164654 a.u.
  Convergence information after     4 iterations: 
  Largest element of residual vector :  0.28302894E-03.
  Largest element of DIIS residual   : -0.26603714E-03.
   The total correlation energy is -0.584791650625 a.u.
  Convergence information after     5 iterations: 
  Largest element of residual vector : -0.28193898E-03.
  Largest element of DIIS residual   : -0.21149061E-03.
   The total correlation energy is -0.584795585013 a.u.
  Convergence information after     6 iterations: 
  Largest element of residual vector : -0.12533788E-03.
  Largest element of DIIS residual   : -0.92315867E-04.
   The total correlation energy is -0.584796716496 a.u.
  Convergence information after     7 iterations: 
  Largest element of residual vector : -0.91790933E-04.
  Largest element of DIIS residual   : -0.63109564E-04.
   The total correlation energy is -0.584795970211 a.u.
  Convergence information after     8 iterations: 
  Largest element of residual vector : -0.41888898E-04.
  Largest element of DIIS residual   : -0.26121003E-04.
   The total correlation energy is -0.584796023516 a.u.
  Convergence information after     9 iterations: 
  Largest element of residual vector : -0.22797026E-04.
  Largest element of DIIS residual   : -0.12935950E-04.
   The total correlation energy is -0.584796900129 a.u.
  Convergence information after    10 iterations: 
  Largest element of residual vector : -0.11237829E-04.
  Largest element of DIIS residual   : -0.57359785E-05.
   The total correlation energy is -0.584797238549 a.u.
  Convergence information after    11 iterations: 
  Largest element of residual vector : -0.30781932E-05.
  Largest element of DIIS residual   :  0.23676747E-05.
   The total correlation energy is -0.584797425906 a.u.
  Convergence information after    12 iterations: 
  Largest element of residual vector : -0.20977800E-05.
  Largest element of DIIS residual   : -0.10862032E-05.
   The total correlation energy is -0.584797489078 a.u.
  Convergence information after    13 iterations: 
  Largest element of residual vector : -0.54713227E-06.
  Largest element of DIIS residual   : -0.47667239E-06.
   The total correlation energy is -0.584797495634 a.u.
  Convergence information after    14 iterations: 
  Largest element of residual vector : -0.41598856E-06.
  Largest element of DIIS residual   : -0.24258064E-06.
   The total correlation energy is -0.584797497645 a.u.
  Convergence information after    15 iterations: 
  Largest element of residual vector : -0.18209867E-06.
  Largest element of DIIS residual   :  0.13152750E-06.
   The total correlation energy is -0.584797497256 a.u.
  Convergence information after    16 iterations: 
  Largest element of residual vector : -0.11608387E-06.
  Largest element of DIIS residual   : -0.51391632E-07.
   The total correlation energy is -0.584797498961 a.u.
  Convergence information after    17 iterations: 
  Largest element of residual vector : -0.57141621E-07.
  Largest element of DIIS residual   : -0.30632259E-07.
   The total correlation energy is -0.584797499649 a.u.
  Convergence information after    18 iterations: 
  Largest element of residual vector : -0.18718996E-07.
  Largest element of DIIS residual   : -0.14224391E-07.
   The total correlation energy is -0.584797499809 a.u.
  Convergence information after    19 iterations: 
  Largest element of residual vector : -0.13076436E-07.
  Largest element of DIIS residual   : -0.73364861E-08.
   The total correlation energy is -0.584797500018 a.u.
  Convergence information after    20 iterations: 
  Largest element of residual vector : -0.41918136E-08.
  Largest element of DIIS residual   : -0.30790695E-08.
   The total correlation energy is -0.584797500018 a.u.
  Convergence information after    21 iterations: 
  Largest element of residual vector : -0.25096784E-08.
  Largest element of DIIS residual   : -0.16024744E-08.
   The total correlation energy is -0.584797500029 a.u.
  Convergence information after    22 iterations: 
  Largest element of residual vector : -0.11793148E-08.
  Largest element of DIIS residual   : -0.90274743E-09.
   The total correlation energy is -0.584797500032 a.u.
  Convergence information after    23 iterations: 
  Largest element of residual vector : -0.71727397E-09.
  Largest element of DIIS residual   :  0.38491976E-09.
   The total correlation energy is -0.584797500032 a.u.
  Convergence information after    24 iterations: 
  Largest element of residual vector : -0.34571603E-09.
  Largest element of DIIS residual   : -0.25458654E-09.
   The total correlation energy is -0.584797500038 a.u.
  Convergence information after    25 iterations: 
  Largest element of residual vector : -0.16180392E-09.
  Largest element of DIIS residual   : -0.12887438E-09.
   The total correlation energy is -0.584797500038 a.u.
  Convergence information after    26 iterations: 
  Largest element of residual vector : -0.10429392E-09.
  Largest element of DIIS residual   : -0.75814722E-10.
   The total correlation energy is -0.584797500039 a.u.
  Convergence information after    27 iterations: 
  Largest element of residual vector : -0.50349079E-10.
  Largest element of DIIS residual   : -0.30445823E-10.
  Amplitude equations converged in    27iterations.
   The total correlation energy is -0.584797500039 a.u.
   The CC iterations have converged.

   Largest T1 amplitudes for spin case AA:
   i       a                 i       a                 i       a    
-----------------------------------------------------------------------------
[ 12      90    ]-0.01459 [ 12      87    ]-0.01340 [  9      38    ] 0.00820
[  9      17    ] 0.00773 [ 13      87    ]-0.00757 [  9      39    ]-0.00721
[  9      15    ]-0.00699 [  8      39    ] 0.00605 [ 12      94    ]-0.00591
[ 12      88    ]-0.00585 [  9      27    ]-0.00580 [  9      23    ]-0.00573
[  7      27    ]-0.00565 [  9      47    ] 0.00529 [ 10      15    ]-0.00506
-----------------------------------------------------------------------------
   Norm of T1AA vector (      837 symmetry allowed elements):  0.0437318649.
-----------------------------------------------------------------------------
   Largest T2 amplitudes for spin case AB:
       _       _                 _       _                 _       _
   i   j   a   b             i   j   a   b             i   j   a   b
-----------------------------------------------------------------------------
[  9   9  15  15]-0.02353 [  9   9  17  17]-0.02235 [  9   9  17  15] 0.02216
[  9   9  15  17] 0.02216 [ 13  13  90  90]-0.01840 [ 10  10  33  33]-0.01793
[ 13  13  94  94]-0.01676 [  9   9  18  15] 0.01592 [  9   9  15  18] 0.01592
[ 13  13  91  91]-0.01578 [  9   9  18  17]-0.01572 [  9   9  17  18]-0.01572
[  8   8  25  25]-0.01445 [ 13  13  95  95]-0.01434 [ 10  10  35  35]-0.01372
-----------------------------------------------------------------------------
   Norm of T2AB vector (  1067805 symmetry allowed elements):  0.3530779088.
-----------------------------------------------------------------------------
       Summary of iterative solution of CC equations 
      -----------------------------------------------------------
                       Correlation           Total
       Iteration         Energy              Energy
      -----------------------------------------------------------
            0        -0.569156524683    -535.490715527043  DIIS 
            1        -0.570651486514    -535.492210488875  DIIS 
            2        -0.583240651143    -535.504799653503  DIIS 
            3        -0.583374470277    -535.504933472637  DIIS 
            4        -0.584666164654    -535.506225167014  DIIS 
            5        -0.584791650625    -535.506350652986  DIIS 
            6        -0.584795585013    -535.506354587374  DIIS 
            7        -0.584796716496    -535.506355718857  DIIS 
            8        -0.584795970211    -535.506354972571  DIIS 
            9        -0.584796023516    -535.506355025876  DIIS 
           10        -0.584796900129    -535.506355902489  DIIS 
           11        -0.584797238549    -535.506356240909  DIIS 
           12        -0.584797425906    -535.506356428267  DIIS 
           13        -0.584797489078    -535.506356491438  DIIS 
           14        -0.584797495634    -535.506356497995  DIIS 
           15        -0.584797497645    -535.506356500005  DIIS 
           16        -0.584797497256    -535.506356499617  DIIS 
           17        -0.584797498961    -535.506356501322  DIIS 
           18        -0.584797499649    -535.506356502009  DIIS 
           19        -0.584797499809    -535.506356502169  DIIS 
           20        -0.584797500018    -535.506356502378  DIIS 
           21        -0.584797500018    -535.506356502378  DIIS 
           22        -0.584797500029    -535.506356502390  DIIS 
           23        -0.584797500032    -535.506356502392  DIIS 
           24        -0.584797500032    -535.506356502392  DIIS 
           25        -0.584797500038    -535.506356502398  DIIS 
           26        -0.584797500038    -535.506356502399  DIIS 
           27        -0.584797500039    -535.506356502400  DIIS 
      -----------------------------------------------------------
      A miracle has come to pass. The CC iterations have converged.
      The reference energy is      -534.92155900236048 a.u.
      The correlation energy is      -0.58479750003932 a.u.
      The total energy is          -535.50635650239985 a.u.
 @CHECKOUT-I, Total execution time (CPU/WALL):      207.56/      27.06 seconds.
--executable xvcc finished with status     0 in       27.22 seconds (walltime).
 --invoking executable--
/home/asmola/.local/bin/xlambda
 @GETMEM-I,  Allocated    3814 MB of main memory.
 The Lambda equations are solved for CCSD.
  Initial lambda amplitudes: 
  Convergence information after     1 iterations: 
  Largest element of residual vector :  0.30843851E-02.
  Largest element of DIIS residual   :  0.30843851E-02.
  Convergence information after     2 iterations: 
  Largest element of residual vector : -0.37970947E-03.
  Largest element of DIIS residual   : -0.41391263E-03.
  Convergence information after     3 iterations: 
  Largest element of residual vector :  0.43533933E-03.
  Largest element of DIIS residual   :  0.33930407E-03.
  Convergence information after     4 iterations: 
  Largest element of residual vector :  0.14065922E-03.
  Largest element of DIIS residual   :  0.66944825E-04.
  Convergence information after     5 iterations: 
  Largest element of residual vector :  0.71326097E-04.
  Largest element of DIIS residual   :  0.59575885E-04.
  Convergence information after     6 iterations: 
  Largest element of residual vector :  0.41117035E-04.
  Largest element of DIIS residual   :  0.22863748E-04.
  Convergence information after     7 iterations: 
  Largest element of residual vector :  0.23226771E-04.
  Largest element of DIIS residual   :  0.15290146E-04.
  Convergence information after     8 iterations: 
  Largest element of residual vector :  0.10361031E-04.
  Largest element of DIIS residual   : -0.50274452E-05.
  Convergence information after     9 iterations: 
  Largest element of residual vector :  0.51055536E-05.
  Largest element of DIIS residual   :  0.26913641E-05.
  Convergence information after    10 iterations: 
  Largest element of residual vector :  0.19010222E-05.
  Largest element of DIIS residual   : -0.12279883E-05.
  Convergence information after    11 iterations: 
  Largest element of residual vector : -0.73246792E-06.
  Largest element of DIIS residual   : -0.42772224E-06.
  Convergence information after    12 iterations: 
  Largest element of residual vector : -0.36172327E-06.
  Largest element of DIIS residual   : -0.20212992E-06.
  Convergence information after    13 iterations: 
  Largest element of residual vector : -0.16788557E-06.
  Largest element of DIIS residual   : -0.10908417E-06.
  Convergence information after    14 iterations: 
  Largest element of residual vector : -0.83823761E-07.
  Largest element of DIIS residual   : -0.62033734E-07.
  Amplitude equations converged in    14 iterations.
 
  Full Fbar is constructed for CCSD second derivatives
 
      The lambda equations have converged.
 @CHECKOUT-I, Total execution time (CPU/WALL):      114.75/      14.62 seconds.
--executable xlambda finished with status     0 in       14.75 seconds (walltime).
 --invoking executable--
/home/asmola/.local/bin/xdens
 @GETMEM-I,  Allocated    3814 MB of main memory.
  CCSD density and intermediates are calculated.
  Unrelaxed density for DBOC is calculated
  sort for dboc
  ----------------------------------------------------------------------
                 Natural orbital occupation numbers
  ----------------------------------------------------------------------
  1.99999  1.99951  1.99925  1.99787  1.99786  1.99767  1.98065  1.97080
  1.96575  1.96253  1.94912  1.94876  1.93379  0.06223  0.02519  0.02320
  0.01994  0.01992  0.01900  0.01384  0.01243  0.01082  0.00940  0.00935
  0.00660  0.00618  0.00609  0.00597  0.00512  0.00485  0.00299  0.00168
  0.00164  0.00157  0.00157  0.00149  0.00144  0.00143  0.00117  0.00116
  0.00114  0.00104  0.00101  0.00099  0.00096  0.00088  0.00084  0.00083
  0.00076  0.00072  0.00067  0.00064  0.00063  0.00059  0.00058  0.00055
  0.00052  0.00051  0.00050  0.00048  0.00048  0.00045  0.00044  0.00043
  0.00030  0.00025  0.00021  0.00020  0.00016  0.00014  0.00014  0.00012
  0.00011  0.00011  0.00010  0.00010  0.00010  0.00010  0.00008  0.00008
  0.00008  0.00007  0.00007  0.00007  0.00006  0.00006  0.00006  0.00006
  0.00005  0.00005  0.00005  0.00005  0.00005  0.00004  0.00004  0.00004
  0.00004  0.00003  0.00003  0.00002  0.00002  0.00002  0.00002  0.00001
  0.00001  0.00001  0.00001  0.00001  0.00001  0.00001  0.00001  0.00001
  0.00000  0.00000  0.00000  0.00000  0.00000  0.00000  0.00000  0.00000
  0.00000  0.00000  0.00000  0.00000
  Trace of density matrix :  26.0000000000.
  ----------------------------------------------------------------------
  Density calculation successfully completed.
 @CHECKOUT-I, Total execution time (CPU/WALL):        9.16/       1.52 seconds.
--executable xdens finished with status     0 in        1.66 seconds (walltime).
 --invoking executable--
/home/asmola/.local/bin/xvdint
 @GETMEM-I,  Allocated    3814 MB of main memory.
 One- and two-electron integral derivatives are calculated
 for RHF-CC/MBPT hessians and dipole derivatives.
 Spherical gaussians are used.
  magnet F F
  Integrals for DBOC will be evaluated
 
   First contribution to E(DBOC):       28.66604 cm-1
   Second contribution to E(DBOC):    -2230.55280 cm-1
 Evaluation of 1e integral derivatives required    1.76 seconds.
 Evaluation of 2el integral derivatives
 Evaluation of 2e integral derivatives required  128.40 seconds.
 @CHECKOUT-I, Total execution time (CPU/WALL):      130.16/      16.43 seconds.
--executable xvdint finished with status     0 in       17.13 seconds (walltime).
 --invoking executable--
/home/asmola/.local/bin/xcphf
 @GETMEM-I,  Allocated    3814 MB of main memory.
 Coupled-perturbed HF (CPHF) equations 
 are solved for RHF-CC/MBPT hessian and dipole derivatives.
  irreducible representation Nr.                      1
  # geometric perturbations                          6
  irreducible representation Nr.                      2
  # geometric perturbations                          3
 There are 8 perturbations within irrep 1.
 CPHF converged after  27 iterations.
 There are 4 perturbations within irrep 2.
[...]
 term  0.427388664109660     
 final tnorm  0.848837095324888     
  norm contr. I: |<0|L dT/dx|0>|^2   0.000000000000000E+000
  norm contr. II: <0|[nabla(1+L)e-T][nabla e^T]|0>  0.427388664109660     
  total norm contribution  0.427388664109660     
 oo  2.306468221624934E-003
 vv  -1.43370453998922     
 vo -2.483219355986801E-002
  Correlated perturbed 1-el contribution to DBOC  -1.45623026532747       cm**-1
  SUM_I |dc_I/dx|^2 contribution to DBOC  0.735955719111168       cm**-1
 
 
  The total diagonal Born-Oppenheimer correction (DBOC) is:      0.0086063189 a.u.
  The total diagonal Born-Oppenheimer correction (DBOC) is:       1888.868667 cm-1
 
 Total CC energy including DBOC  -535.497750183504     
 First-order density matrix is being calculated  (Symmetry block 2, perturbation   3)
 Calculation of the contributions of <pq||rs> to dI(i,j)/dx required   1.1 seconds.
 Calculation of the contributions of <pq||rs> to dI(a,b)/dx required   6.4 seconds.
 Calculation of the contributions of <pq||rs> to dI(i,a)/dx required   3.7 seconds.
 First-order Z-vector equations are solved for 1 perturbation.
 Convergence reached after  21 iterations.
        U*G(pq,rs) contribution is being calculated
             (Symmetry block 2, perturbation   3)

 CCSD contribution to force constants 

        0.0000000000        0.0000000000        0.0000000000
        0.0000000000        0.0000000000        0.0000000000
        0.0000000000        0.0000000000        0.0000000000
        0.0000000000        0.0000000000        0.0000000000
        0.0000000000        0.0000000000        0.0000000000
        0.0000000000        0.0000000000        0.0000000000
        0.0000000000        0.0000000000        0.0000000000
        0.0000000000        0.0000000000        0.0000000000
        0.0000000000        0.0000000000        0.0000000000
        0.0000000000        0.0000000000        0.0000000000
        0.0000000000        0.0000000000        0.0000000000
        0.0000000000        0.0000000000        0.0000000000
        0.0000000000        0.0000000000        0.0000000000
        0.0000000000        0.0000000000        0.0000000000
        0.0000000000        0.0000000000        0.0000000000
        0.0000000000        0.0000000000        0.0000000000
        0.0000000000        0.0000000000        0.0000000000
        0.0000000000        0.0000000000        0.0000000000
        0.0000000000        0.0000000000        0.0000000000
        0.0000000000        0.0000000000        0.0000000000
        0.0000000000        0.0000000000        0.0000000000
        0.0000000000        0.0000000000        0.0000000000
        0.0000000000        0.0000000000        0.0000000000
        0.0000000000        0.0000000000        0.0000000000
        0.0000000000        0.0000000000        0.0000000000
        0.0000000000        0.0000000000        0.0000000000
        0.2559431295       -0.0664484372       -0.1894946923

 CCSD contribution to dipole derivatives 

        0.0000000000        0.0000000000        0.0000000000
        0.0000000000        0.0000000000        0.0000000000
        0.0000000000        0.0000000000        0.0000000000
        0.0000000000        0.0000000000        0.0000000000
        0.0000000000        0.0000000000        0.0000000000
        0.0000000000        0.0000000000        0.0000000000
        0.0000000000        0.0000000000        0.0000000000
        0.0000000000        0.0000000000        0.0000000000
        0.0000000000        0.0000000000        0.0178514777
 @CHECKOUT-I, Total execution time (CPU/WALL):      429.82/      71.04 seconds.
--executable xsdcc finished with status     0 in       71.13 seconds (walltime).
 --invoking executable--
/home/asmola/.local/bin/xanti
 @GETMEM-I,  Allocated    3814 MB of main memory.
 CCSD MO derivative gammas will be sorted to Mulliken order.
 @CHECKOUT-I, Total execution time (CPU/WALL):        3.01/       1.67 seconds.
--executable xanti finished with status     0 in        1.72 seconds (walltime).
 --invoking executable--
/home/asmola/.local/bin/xbcktrn
 @GETMEM-I,  Allocated    3814 MB of main memory.
 CCSD MO derivative gammas will be transformed to the AO basis.
 @CHECKOUT-I, Total execution time (CPU/WALL):        5.13/       0.70 seconds.
--executable xbcktrn finished with status     0 in        0.82 seconds (walltime).
 --invoking executable--
/home/asmola/.local/bin/xvdint
 @GETMEM-I,  Allocated    3814 MB of main memory.
 One- and two-electron integral derivatives are calculated
 for RHF-CC/MBPT hessians and dipole derivatives.
 Spherical gaussians are used.
  magnet F F
 Evaluation of 2el integral derivatives

                      Two-electron integral gradient
                      ------------------------------

                         O #1 x     0.0000000000
                         O #1 y     0.0000000000
                         H #2 x     0.0000000000
                         H #2 y     0.0000000000
                         CL#3 x     0.0000000000
                         CL#3 y     0.0000000000


 O #1       0.0000000000            0.0000000000           -0.0943703196
 H #2       0.0000000000            0.0000000000           -0.0005400589
 CL#3       0.0000000000            0.0000000000            0.0949103785


 Evaluation of 2e integral derivatives required   56.81 seconds.
  contribution to Hessian
        0.0000000000        0.0000000000        0.0000000000
        0.0000000000        0.0000000000        0.0000000000
       -0.0943703196       -0.0005400589        0.0949103785
 @CHECKOUT-I, Total execution time (CPU/WALL):       56.87/       8.87 seconds.
--executable xvdint finished with status     0 in        8.93 seconds (walltime).
 --invoking executable--
/home/asmola/.local/bin/xanti
 @GETMEM-I,  Allocated    3814 MB of main memory.
 CCSD MO gammas will be sorted to Mulliken order.
 @CHECKOUT-I, Total execution time (CPU/WALL):        3.78/       3.57 seconds.
--executable xanti finished with status     0 in        3.61 seconds (walltime).
 --invoking executable--
/home/asmola/.local/bin/xbcktrn
 @GETMEM-I,  Allocated    3814 MB of main memory.
 CCSD MO gammas will be transformed to the AO basis.
 @CHECKOUT-I, Total execution time (CPU/WALL):        8.71/       1.16 seconds.
--executable xbcktrn finished with status     0 in        1.19 seconds (walltime).
 --invoking executable--
/home/asmola/.local/bin/xvdint
 @GETMEM-I,  Allocated    3814 MB of main memory.
 One- and two-electron integral derivatives are calculated
 for RHF-CC/MBPT hessians and dipole derivatives.
 Spherical gaussians are used.
  magnet F F

                     Kinetic energy integral gradient
                     --------------------------------

                         O #1 x    -0.0454245819
                         O #1 y    -0.5234246900
                         H #2 x     0.4040607805
                         H #2 y     0.5597169651
                         CL#3 x    -0.3586361986
                         CL#3 y    -0.0362922751


 O #1      -0.0454245819           -0.5234246900            0.0000000000
 H #2       0.4040607805            0.5597169651            0.0000000000
 CL#3      -0.3586361986           -0.0362922751            0.0000000000



                   Nuclear attraction integral gradient
                   ------------------------------------

                         O #1 x   -22.9474998350
                         O #1 y     5.6274399631
                         H #2 x    -5.6312248826
                         H #2 y    -5.9700719137
                         CL#3 x    28.5787247176
                         CL#3 y     0.3426319507


 O #1     -22.9474998350            5.6274399631            0.0000000000
 H #2      -5.6312248826           -5.9700719137            0.0000000000
 CL#3      28.5787247176            0.3426319507            0.0000000000



                      Reorthonormalization gradient
                      -----------------------------

                         O #1 x     0.0000000000
                         O #1 y     0.0000000000
                         H #2 x     0.0000000000
                         H #2 y     0.0000000000
                         CL#3 x     0.0000000000
                         CL#3 y     0.0000000000


 O #1       0.0000000000            0.0000000000            0.0000000000
 H #2       0.0000000000            0.0000000000            0.0000000000
 CL#3       0.0000000000            0.0000000000            0.0000000000



                     Kinetic energy integral Hessian
                     -------------------------------


           Symmetry 1

           O #1 x      O #1 y      H #2 x      H #2 y      CL#3 x      CL#3 y

 O #1 x    0.101673
 O #1 y    0.580875    0.036788
 H #2 x    0.296088   -0.561426   -0.297000
 H #2 y   -0.561426   -0.250132    0.573558    0.251784
 CL#3 x   -0.397761   -0.019449    0.000912   -0.012131    0.396849
 CL#3 y   -0.019449    0.213343   -0.012131   -0.001653    0.031580   -0.211691


           Symmetry 2

           O #1 z      H #2 z      CL#3 z

 O #1 z   -0.894834
 H #2 z    0.692475   -0.698783
 CL#3 z    0.202359    0.006308   -0.208667




           O #1 x      O #1 y      O #1 z      H #2 x      H #2 y      H #2 z

 O #1 x    0.101673
 O #1 y    0.580875    0.036788
 O #1 z    0.000000    0.000000   -0.894834

 H #2 x    0.296088   -0.561426    0.000000   -0.297000
 H #2 y   -0.561426   -0.250132    0.000000    0.573558    0.251784
 H #2 z    0.000000    0.000000    0.692475    0.000000    0.000000   -0.698783

 CL#3 x   -0.397761   -0.019449    0.000000    0.000912   -0.012131    0.000000
 CL#3 y   -0.019449    0.213343    0.000000   -0.012131   -0.001653    0.000000
 CL#3 z    0.000000    0.000000    0.202359    0.000000    0.000000    0.006308


           CL#3 x      CL#3 y      CL#3 z

 CL#3 x    0.396849
 CL#3 y    0.031580   -0.211691
 CL#3 z    0.000000    0.000000   -0.208667




                   Nuclear attraction integral Hessian
                   -----------------------------------


           Symmetry 1

           O #1 x      O #1 y      H #2 x      H #2 y      CL#3 x      CL#3 y

 O #1 x  -10.757768
 O #1 y   -3.387462   10.503902
 H #2 x   -3.997061    4.108155    3.484273
 H #2 y    4.168167   -0.163505   -4.878766    0.140216
 CL#3 x   14.754829   -0.720693    0.512788    0.710599  -15.267617
 CL#3 y   -0.780705  -10.340397    0.770611    0.023289    0.010094   10.317107


           Symmetry 2

           O #1 z      H #2 z      CL#3 z

 O #1 z   16.729022
 H #2 z   -6.958662    7.419086
 CL#3 z   -9.770361   -0.460424   10.230785




           O #1 x      O #1 y      O #1 z      H #2 x      H #2 y      H #2 z

 O #1 x  -10.757768
 O #1 y   -3.387462   10.503902
 O #1 z    0.000000    0.000000   16.729022

 H #2 x   -3.997061    4.108155    0.000000    3.484273
 H #2 y    4.168167   -0.163505    0.000000   -4.878766    0.140216
 H #2 z    0.000000    0.000000   -6.958662    0.000000    0.000000    7.419086

 CL#3 x   14.754829   -0.720693    0.000000    0.512788    0.710599    0.000000
 CL#3 y   -0.780705  -10.340397    0.000000    0.770611    0.023289    0.000000
 CL#3 z    0.000000    0.000000   -9.770361    0.000000    0.000000   -0.460424


           CL#3 x      CL#3 y      CL#3 z

 CL#3 x  -15.267617
 CL#3 y    0.010094   10.317107
 CL#3 z    0.000000    0.000000   10.230785




                Highest order reorthonormalization Hessian
                ------------------------------------------


           Symmetry 1

           O #1 x      O #1 y      H #2 x      H #2 y      CL#3 x      CL#3 y

 O #1 x    0.000000
 O #1 y    0.000000    0.000000
 H #2 x    0.000000    0.000000    0.000000
 H #2 y    0.000000    0.000000    0.000000    0.000000
 CL#3 x    0.000000    0.000000    0.000000    0.000000    0.000000
 CL#3 y    0.000000    0.000000    0.000000    0.000000    0.000000    0.000000


           Symmetry 2

           O #1 z      H #2 z      CL#3 z

 O #1 z    0.000000
 H #2 z    0.000000    0.000000
 CL#3 z    0.000000    0.000000    0.000000




           O #1 x      O #1 y      O #1 z      H #2 x      H #2 y      H #2 z


           CL#3 x      CL#3 y      CL#3 z




                Electronic contributions to dipole moment
                -----------------------------------------

                               au             Debye

                    x      1.77680909      4.51619903
                    y      0.18152442      0.46138914

  Conversion factor used: 1 a.u. =   2.54174691 Debye 



   Electronic contributions to static part of dipole moment derivatives
   --------------------------------------------------------------------


                     Total dipole moment derivatives
                     -------------------------------


           Symmetry 1
                              Ex             Ey

               O #1 x    -8.92865078    -0.07761490
               O #1 y    -0.19120681    -8.72254624
               H #2 x    -0.20880464     0.18430908
               H #2 y     0.30882893    -0.39970912
               CL#3 x   -16.86254459    -0.10669418
               CL#3 y    -0.11762212   -16.87774464

           Symmetry 2
                              Ez

               O #1 z    -8.37907130
               H #2 z    -0.73281349
               CL#3 z   -16.88811521



                       Ex          Ey          Ez

      O #1    x   -8.928651   -0.077615    0.000000
      O #1    y   -0.191207   -8.722546    0.000000
      O #1    z    0.000000    0.000000   -8.379071

      H #2    x   -0.208805    0.184309    0.000000
      H #2    y    0.308829   -0.399709    0.000000
      H #2    z    0.000000    0.000000   -0.732813

      CL#3    x  -16.862545   -0.106694    0.000000
      CL#3    y   -0.117622  -16.877745    0.000000
      CL#3    z    0.000000    0.000000  -16.888115

 Evaluation of 1e integral derivatives required    0.97 seconds.
 Evaluation of 2el integral derivatives

                      Two-electron integral gradient
                      ------------------------------

                         O #1 x    10.5844921830
                         O #1 y    -2.1883627671
                         H #2 x     3.0616928630
                         H #2 y     2.6777725176
                         CL#3 x   -13.6461850459
                         CL#3 y    -0.4894097504


 O #1      10.5844921830           -2.1883627671            0.0000000000
 H #2       3.0616928630            2.6777725176            0.0000000000
 CL#3     -13.6461850459           -0.4894097504            0.0000000000


 Evaluation of 2e integral derivatives required  165.66 seconds.

                            Molecular gradient
                            ------------------

                         O #1 x    -0.0719107909
                         O #1 y     0.1971699688
                         H #2 x    -0.1921228007
                         H #2 y    -0.2375301036
                         CL#3 x     0.2640335916
                         CL#3 y     0.0403601347


 O #1      -0.0719107909            0.1971699688            0.0000000000
 H #2      -0.1921228007           -0.2375301036            0.0000000000
 CL#3       0.2640335916            0.0403601347            0.0000000000


  Molecular gradient norm 0.457E+00

                            Molecular hessian
                            -----------------


           Symmetry 1

           O #1 x      O #1 y      H #2 x      H #2 y      CL#3 x      CL#3 y

 O #1 x    3.646578
 O #1 y    3.654613    6.984550
 H #2 x   -2.563284   -5.293714    3.004696
 H #2 y   -3.728749   -6.971779    4.007442    6.590388
 CL#3 x   -1.083295    0.390142   -0.655202   -0.225484    1.738497
 CL#3 y    0.074136   -0.012771   -0.137671    0.006276    0.063535    0.006495


           Symmetry 2

           O #1 z      H #2 z      CL#3 z

 O #1 z   -3.151887
 H #2 z    3.116721   -3.197945
 CL#3 z    0.035166   -0.079085    0.043918




           O #1 x      O #1 y      O #1 z      H #2 x      H #2 y      H #2 z

 O #1 x    3.646578
 O #1 y    3.654613    6.984550
 O #1 z    0.000000    0.000000   -3.151887

 H #2 x   -2.563284   -5.293714    0.000000    3.004696
 H #2 y   -3.728749   -6.971779    0.000000    4.007442    6.590388
 H #2 z    0.000000    0.000000    3.116721    0.000000    0.000000   -3.197945

 CL#3 x   -1.083295    0.390142    0.000000   -0.655202   -0.225484    0.000000
 CL#3 y    0.074136   -0.012771    0.000000   -0.137671    0.006276    0.000000
 CL#3 z    0.000000    0.000000    0.035166    0.000000    0.000000   -0.079085


           CL#3 x      CL#3 y      CL#3 z

 CL#3 x    1.738497
 CL#3 y    0.063535    0.006495
 CL#3 z    0.000000    0.000000    0.043918




                           Total dipole moment
                           -------------------

                               au             Debye

                    x     -0.19909689     -0.50605390
                    y     -0.55680838     -1.41526597

  Conversion factor used: 1 a.u. =   2.54174691 Debye 



                     Total dipole moment derivatives
                     -------------------------------


           Symmetry 1
                              Ex             Ey

               O #1 x    -0.50812136    -0.03613446
               O #1 y    -0.19112916    -0.19044579
               H #2 x     0.25724105    -0.00492120
               H #2 y     0.12475521     0.20072555
               CL#3 x     0.25088066     0.04105551
               CL#3 y     0.06637401    -0.01027981

           Symmetry 2
                              Ez

               O #1 z    -0.36351961
               H #2 z     0.33887636
               CL#3 z     0.02464336



                       Ex          Ey          Ez

      O #1    x   -0.508121   -0.036134    0.000000
      O #1    y   -0.191129   -0.190446    0.000000
      O #1    z    0.000000    0.000000   -0.363520

      H #2    x    0.257241   -0.004921    0.000000
      H #2    y    0.124755    0.200726    0.000000
      H #2    z    0.000000    0.000000    0.338876

      CL#3    x    0.250881    0.041056    0.000000
      CL#3    y    0.066374   -0.010280    0.000000
      CL#3    z    0.000000    0.000000    0.024643

  Molecular gradient does not satisfy rotational invariance condition.
   rotational invariance in yz-plane :        0.0000E+00
   rotational invariance in xz-plane :        0.0000E+00
   rotational invariance in xy-plane :        -.4617E-01
 @CHECKOUT-I, Total execution time (CPU/WALL):      166.73/      22.50 seconds.
--executable xvdint finished with status     0 in       22.56 seconds (walltime).
 --invoking executable--
/home/asmola/.local/bin/xjoda
  @GTFLGS-I, Hessian will be transformed to curvilinear coordinates.
  @GTFLGS-I, Hessian will be transformed to curvilinear coordinates.
  igrd and ihes are                      0                     1
  gradient from JOBARC 
  -0.071910790853798   0.197169968844045   0.000000000000000
  -0.192122800719720  -0.237530103552239   0.000000000000000
   0.264033591573532   0.040360134708193   0.000000000000000
 
  @PROJFCM-I, Projecting force constant matrix onto totally symmetric subspace.
  Largest difference between matrix elements of symmetrized
  and unsymmetrized FCM :     0.0000000000E+00.
 
  Summary of diagonal Born-Oppenheimer correction at the correlated level
  The total diagonal Born-Oppenheimer correction (DBOC) is:      0.0086063189 a.u.
  The total diagonal Born-Oppenheimer correction (DBOC) is:       1888.868667 cm-1
  The total diagonal Born-Oppenheimer correction (DBOC) is:            22.596 kJ/mole
  hellooooooo 
  readis is  F
 
 @CHECKOUT-I, Total execution time (CPU/WALL):        0.02/       0.04 seconds.
--executable xjoda finished with status     0 in        0.08 seconds (walltime).
  The final electronic energy is      -535.497750183504195 a.u. 
  This computation required                          857.96 seconds (walltime).
