 --invoking executable--
/home/asmola/.local/bin/xjoda


   *************************************************************************
         <<<     CCCCCC     CCCCCC   |||     CCCCCC     CCCCCC   >>>
       <<<      CCC        CCC       |||    CCC        CCC         >>>
      <<<      CCC        CCC        |||   CCC        CCC            >>>
    <<<        CCC        CCC        |||   CCC        CCC              >>>
      <<<      CCC        CCC        |||   CCC        CCC            >>>
       <<<      CCC        CCC       |||    CCC        CCC         >>>
         <<<     CCCCCC     CCCCCC   |||     CCCCCC     CCCCCC   >>>
   *************************************************************************

     ****************************************************************
     * CFOUR Coupled-Cluster techniques for Computational Chemistry *
     ****************************************************************
 

   Department of Chemistry                Institut fuer Physikalische Chemie
   University of Florida                  Universitaet Mainz
   Gainesville, FL 32611, USA             D-55099 Mainz, Germany

   Department of Chemistry                Fakultaet fuer Chemie und Biowiss.
   Johns Hopkins University               Karlsruher Institut fuer Technologie
   Baltimore, MD 21218, USA               D-76131 Karlsruhe, Germany

   Department of Chemistry                Department of Physical Chemistry
   Southern Methodist University          Eotvos Lorand University
   Dallas, TX 75275, USA                  H-1053 Budapest, Hungary

 
                       Version 2.1
 
                     vincent.theory.phys.ucl.ac.uk                     
                     Tue 28 Jan 13:33:06 GMT 2025                      
                     integer*8 version is running
 
********************************************************************************
*                          Input from ZMAT file                                *
********************************************************************************
Hypochlorous acid DBOC calculation                                              
O                                                                               
H 1 ROH                                                                         
CL 1 ROCL 2 A                                                                   
                                                                                
ROH=0.96000000                                                                  
ROCL=1.68300000                                                                 
A=112.50000                                                                     
                                                                                
                                                                                
*CFOUR(CALC=CCSD,BASIS=AUG-PVTZ,SCF_CONV=10                                     
CC_CONV=10,DBOC=ON,MEMORY=500000000)                                            
********************************************************************************
  @GTFLGS-I, Hessian will be transformed to curvilinear coordinates.
    -------------------------------------------------------------------
                    CFOUR Control Parameters 
    -------------------------------------------------------------------
        External           Internal           Value            Units
          Name               Name
    -------------------------------------------------------------------
       ABCDTYPE             IABCDT         STANDARD    [  0]    ***   
       ANHARMONIC           IANHAR         OFF         [  0]    ***   
       ANH_ALGORIT          IANALG         STANDARD    [  0]    ***   
       ANH_DERIVAT          IANDER         SECOND      [  1]    ***   
       ANH_MODE             ANHMOD         VIBRATION   [  0]    ***   
       ANH_STEPSIZ          ICUBST             50000          x 10-6  
       ANH_SYMMETR          IANHSM         ABELIAN     [  0]    ***   
       AO_LADDERS           IAOLAD         SINGLEPASS  [  1]    ***   
       AV_SCF               IAVSCF         OFF         [  0]    ***   
       BASIS                IBASIS         AUG-PVTZ    [ 34]    ***   
       BOTHVECTORS          BOTHVC         OFF         [  0]    ***   
       BOX_POTENT           IPIAB          OFF         [  0]    ***   
       BREIT                IBREIT         OFF         [  0]    ***   
       BRUCK_CONV           IBRTOL          10D-  4             ***   
       BRUECKNER            IBRKNR         OFF         [  0]    ***   
       BUFFERSIZE           IBUFFS              4096            ***   
       CACHE_RECS           ICHREC             10               ***   
       CALCLEVEL            ICLLVL         CCSD        [ 10]    ***   
       CCORBOPT             ICCORB         OFF         [  0]  x 0.01  
       CC_CONV              ICCCNV          10D- 10             ***   
       CC_EXPORDER          ICCEOR              5               ***   
       CC_EXTRAPOL          ICCEXT         DIIS        [  1]    ***   
       CC_GUESS             ICCGES         MP2         [  0]    ***   
       CC_MAXCYC            ICCCYC            100              cycles 
       CC_PROGRAM           ICCPRO         VCC         [  0]    ***   
       CHARGE               ICHRGE              0               ***   
       CHOLESKY             ICHOLE         OFF         [  0]    ***   
       CIS_CONV             ICISTL              5               ***   
       COMM_SIZE            IPSIZE            ***               ***   
       CONSTANT             ICONST         OLD         [  1]    ***   
       CONTINUUM            ICONTU         NONE        [  0]    ***   
       CONTRACTION          ICNTYP         GENERAL     [  1]    ***   
       COORDINATES          ICOORD         INTERNAL    [  0]    ***   
       CPHF_CONVER          ICPHFT          10D- 16             ***   
       CPHF_MAXCYC          ICPHFC             64              cycles 
       CUBIC                ICUBIC         OFF         [  0]    ***   
       CURVILINEAR          ICURVY         ON          [  1]    ***   
       DBOC                 IDBOC          ON          [  1]    ***   
       DCT                  IDCT           OFF         [  0]    ***   
       DERIV_LEV            IDRLVL         SECOND      [  2]    ***   
       DEVMEM_SIZE          IDVMEM          50000000           MByte  
       DIAG_MRCC            IEOMST          10D-  0             ***   
       DIFF_TYPE            IDIFTY         RELAXED     [  0]    ***   
       DIRECT               IDIRCT         OFF         [  0]    ***   
       DROPMO               IDRPMO      NONE         
       ECP                  IECP           OFF         [  0]    ***   
       EIGENVECTOR          IVEC                1               ***   
       EL_ANHARM            IELANH         OFF         [  0]    ***   
       EOMFOLLOW            IEOMSR         ENERGY      [  0]    ***   
       EOMIP                IEOMIP         OFF         [  0]    ***   
       EOMLEVEL             HBARFM         SAME        [  0]    ***   
       EOM_MRCC             IMRCCE         NEW         [  1]    ***   
       EOM_NONIT            EOMNON         OFF         [  0]    ***   
       EOM_NSING            IEOMSI          10D-  0             ***   
       EOM_NSTATES          IMRCCD         DAVIDSON    [  0]    ***   
       EOM_NTRIP            IEOMTR          10D-  0             ***   
       EOM_ORDER            IEXORD         ENERGY      [  0]    ***   
       EOM_PROPSTA          IEOMST              0               ***   
       ESTATE_CONV          IEXTOL          10D-  5             ***   
       ESTATE_DIAG          IEXDIG         ITERATIVE   [  0]    ***   
       ESTATE_LOCK          IESLOC         ON          [  1]    ***   
       ESTATE_MAXC          IEXMXC             40               ***   
       ESTATE_PROP          IEXPRP         OFF         [  0]    ***   
       EVAL_HESS            IRECAL              0            # of cyc.
       EXCITATION           IEXCIT              0               ***   
       EXCITE               IEXCIT         NONE        [  0]    ***   
       EXTERN_POT           IEXPOT         OFF         [  0]    ***   
       FCGRADNEW            IFCGNW         OFF         [  0]    ***   
       FC_FIELD             IFINFC              0             x 10-6  
       FD_CALTYPE           IFDCAL         GRADONLY    [  0]    ***   
       FD_PROJECT           IFDPRJ         OFF         [  1]    ***   
       FD_STEPSIZE          IDISFD              0            10-4 bohr
       FD_USEGROUP          IFDGRP         FULL        [  0]    ***   
       FILE_RECSIZ          IFLREC              4096           words  
       FINITE_PERT          IFIPER              0             x 10-6  
       FIXGEOM              IFIXGM         OFF         [  0]    ***   
       FOCK                 IFOCK          AO          [  1]    ***   
       FREQ_ALGORI          IVIALG         STANDARD    [  0]    ***   
       FROZEN_CORE          IFROCO         OFF         [  0]    ***   
       GAMMA_ABCD           IGABCD         STORE       [  0]    ***   
       GAMMA_ABCI           IGABCI         STORE       [  0]    ***   
       GENBAS_1             IGNBS1              0               ***   
       GENBAS_2             IGNBS2              0               ***   
       GENBAS_3             IGNBS3              0               ***   
       GENBAS_4             IGNBS4              0               ***   
       GEO_CONV             ICONTL              5              H/bohr 
       GEO_MAXCYC           IOPTCY             50               ***   
       GEO_MAXSTEP          IMXSTP            300            millibohr
       GEO_METHOD           INR            SINGLE_POINT[  5]    ***   
       GIAO                 IGIAO          OFF         [  1]    ***   
       GIMIC                IGIMIC         OFF         [  0]    ***   
       GRID                 IGRID          OFF         [  0]    ***   
       GRID_ALGO            IGALGO         SERIAL      [  0]    ***   
       GUESS                IGUESS         MOREAD      [  0]    ***   
       HBAR                 IHBAR          OFF         [  0]    ***   
       HESS_TYPE            IHESTP         SCF         [  0]    ***   
       HF2_FILE             IHF2Fl         USE         [  1]    ***   
       HFSTABILITY          ISTABL         OFF         [  0]    ***   
       INCORE               INCORE         OFF         [  0]    ***   
       INPUT_MRCC           IMRCC          ON          [  1]    ***   
       INTEGRALS            INTTYP         VMOL        [  1]    ***   
       JODA_PRINT           IJPRNT              0               ***   
       KEYWORD_OUT          IDMPKW         NO          [  0]    ***   
       LINDEP_TOL           ILINDP              8               ***   
       LINEQ_CONV           IZTACN          10D-  7           cycles  
       LINEQ_EXPOR          ILMAXD              5               ***   
       LINEQ_MAXCY          ILMAXC            100               ***   
       LINEQ_TYPE           ILTYPE         DIIS        [  1]    ***   
       LOCK_ORBOCC          ILOCOC         OFF         [  0]    ***   
       MEMORY_SIZE          IMEMSZ         500000000           words  
       MEM_UNIT             IMEMU          INTEGERWORDS[  0]    ***   
       MRCC                 IMRCCC         OFF         [  0]    ***   
       MULTIPLICTY          IMULTP              1               ***   
       NACOUPLING           IVCOUP         OFF         [  0]    ***   
       NEGEVAL              IDIE           ABORT       [  0]    ***   
       NEWNORM              INEWNO         OFF         [  0]    ***   
       NON-HF               INONHF         OFF         [  0]    ***   
       NTOP_TAMP            ITOPT2             15               ***   
       NUC_MODEL            INUCMO         POINT       [  0]    ***   
       OCCUPATION           IOCCU   ESTIMATED BY SCF 
       OPEN-SHELL           IOPEN          SPIN-ORBITAL[  0]    ***   
       OPTVIB               IOPTVB         OFF         [  0]    ***   
       ORBITALS             IORBTP         STANDARD    [  0]    ***   
       PARALLEL             IPARAL         ON          [  1]    ***   
       PARA_INT             IPINTS         ON          [  1]    ***   
       PARA_PRINT           IPPRIN              0               ***   
       PERT_ORB             IPTORB         STANDARD    [  0]    ***   
       POINTS               IGRDFD              0               ***   
       PRINT                IPRNT               0               ***   
       PROPS                IPROPS         OFF         [  0]    ***   
       PROP_INTEGR          IINTYP         INTERNAL    [  0]    ***   
       PSI                  IPSI           OFF         [  0]    ***   
       QC_ALG               IQCALG         FLM         [  0]    ***   
       QC_LINALG            IQCLIN         TRIDIAG     [  2]    ***   
       QC_MAXCYC            IQCMAX          10D-100           cycles  
       QC_MAXSCFCY          IQCMSC          10D- 15           cycles  
       QC_RTRUST            IQCRTR          10D-  0           x 10-3  
       QC_SKIPSCF           IQCSKI         OFF         [  0]    ***   
       QC_START             IQCSTA          10D-  1             ***   
       QRHFGUESS            IQGUES         OFF         [  0]    ***   
       QUARTIC              IQUART         OFF         [  0]    ***   
       RAMAN_INT            IRAMIN         OFF         [  0]    ***   
       RAMAN_ORB            IRAMRE         UNRELAXED   [  0]    ***   
       RDO                  IRDOFM         ON          [  1]    ***   
       REDUCE_REPR          REDREP         Ir          [  0]    ***   
       REFERENCE            IREFNC         RHF         [  0]    ***   
       RELATIVIST           IRELAT         OFF         [  0]    ***   
       RELAX_DENS           IRDENS         ON          [  1]    ***   
       RESET_FLAGS          IRESET         OFF         [  0]    ***   
       RESTART_CC           ICCRES         OFF         [  0]    ***   
       ROT_EVEC             ROTVEC              0               ***   
       SAVE_INTS            ISVINT         OFF         [  0]    ***   
       SCALE_ON             ISTCRT              0               ***   
       SCF_CONV             ISCFCV          10D- 10             ***   
       SCF_DAMPING          IDAMP               0             x 10-3  
       SCF_EXPORDE          IRPPOR              6               ***   
       SCF_EXPSTAR          IRPPLS              8               ***   
       SCF_EXTRAPO          IRPP           ON          [  1]    ***   
       SCF_MAXCYC           ISCFCY            150              cycles 
       SCF_NOSTOP           ISCFST         OFF         [  0]    ***   
       SCF_PRINT            ISCFPR              0               ***   
       SCF_PROG             ISCFPR         SCF         [  0]    ***   
       SD_FIELD             IFINSD              0             x 10-6  
       SOPERT               IPERSO         OFF         [  0]    ***   
       SPHERICAL            IDFGHI         ON          [  1]    ***   
       SPINORBIT            ISOCAL         OFF         [  0]    ***   
       SPINROTATIO          ISRCON         OFF         [  0]    ***   
       SPIN_FLIP            ISPFLP         OFF         [  0]    ***   
       SPIN_ORBIT           ISPORB         OFF         [  0]    ***   
       SPIN_SCAL            ISCSMP         OFF         [  0]    ***   
       STEEPSCALE           ISTPSC              1000          x 10-3  
       SUBGROUP             ISUBGP         DEFAULT     [  0]    ***   
       SUBGRPAXIS           ISBXYZ         X           [  0]    ***   
       SYMMETRY             ISYM           ON          [  0]    ***   
       SYM_CHECK            ISYMCK         OVERRIDE    [  1]    ***   
       T3_EXTRAPOL          IT3EXT         OFF         [  0]    ***   
       T4_EXTRAPOL          IT4EXP         OFF         [  0]    ***   
       TAMP_SUM             IEVERY              5               ***   
       TESTSUITE            ITESTS         OFF         [  0]    ***   
       THERMOCH             ITHERM         OFF         [  0]    ***   
       TOL_CHOLESK          ITOLCH          10D-  4             ***   
       TRANGRAD             IRESRM         OFF         [  0]    ***   
       TRANS_INV            ITRAIN         IGNORE      [  1]    ***   
       TREAT_PERT           ITREAT         SIMULTANEOUS[  0]    ***   
       TRIP_ALGORI          ITRALG         NORMAL      [  0]    ***   
       UIJ_THRESHO          IUIJTH              1               ***   
       UNITS                IUNITS         ANGSTROM    [  0]    ***   
       UNOS                 IUNOS          OFF         [  0]    ***   
       UPDATE_HESS          IHUPDT         ON          [  1]    ***   
       VIBPHASE             ISETPH         STANDARD    [  0]    ***   
       VIBRATION            IVIB           ANALYTIC    [  1]    ***   
       VIB_ALGORIT          IGEALG         STANDARD    [  0]    ***   
       VNATORB              IVNORB         OFF         [  0]    ***   
       VTRAN                IVTRAN         FULL/PARTIAL[  0]    ***   
       XFIELD               IXEFLD              0             x 10-6  
       XFORM_TOL            IXFTOL          10D- 11             ***   
       YFIELD               IYEFLD              0             x 10-6  
       ZFIELD               IZEFLD              0             x 10-6  
       ZSCALE_EXP           IZEXPS         OFF         [  0]    ***   
    -------------------------------------------------------------------
   3 entries found in Z-matrix 
   Job Title : Hypochlorous acid DBOC calculation                                              
   There are  3 unique internal coordinates.
   Of these,  0 will be optimized.
   User supplied Z-matrix: 
--------------------------------------------------------------------------------
       SYMBOL    BOND      LENGTH    ANGLE     ANGLE     DIHED     ANGLE
                  TO      (ANGST)    WRT      (DEG)      WRT      (DEG)
--------------------------------------------------------------------------------
        O    
        H          1         ROH  
        CL         1         ROCL       2        A    
                  *Initial values for internal coordinates* 
                      Name             Value
                        ROH             0.9600000000
                        ROCL            1.6830000000
                        A             112.5000000000
--------------------------------------------------------------------------------
   Rotational constants (in cm-1): 
          0.4935823863             0.5042555132            23.3194678802
   Rotational constants (in MHz): 
      14797.2297547540         15117.2020938372        699100.1574463166
********************************************************************************
   The full molecular point group is C s .
   The largest Abelian subgroup of the full molecular point group is C s .
   The computational point group is C s .
********************************************************************************
--------------------------------------------------------------------------------
   Analysis of internal coordinates specified by Z-matrix 
--------------------------------------------------------------------------------
   *The nuclear repulsion energy is   51.198489366631435 a.u.
   *There are   3 degrees of freedom within the tot. symm. molecular subspace.
   *Z-matrix requests optimization of   0 coordinates.
   *The optimization is constrained.
   *The following   3 parameters can have non-zero 
    derivatives within the totally symmetric subspace:
             A    [ 3]  ROH  [ 1]  ROCL [ 2]
   *The following   0 parameters are to be optimized:

   *The following coordinates must be varied in an  unconstrained optimization.
             A    [ 3]  ROH  [ 1]  ROCL [ 2]
--------------------------------------------------------------------------------


 ----------------------------------------------------------------
         Coordinates used in calculation (QCOMP) 
 ----------------------------------------------------------------
 Z-matrix   Atomic            Coordinates (in bohr)
  Symbol    Number           X              Y              Z
 ----------------------------------------------------------------
     O         8        -2.12336197     0.11929015    -0.00000000
     H         1        -2.88545027    -1.52701363     0.00000000
     CL       17         1.05439612    -0.01055434     0.00000000
 ----------------------------------------------------------------
 
   Interatomic distance matrix (Angstroms) 
 
                 O             H             CL   
                [ 1]        [ 2]        [ 3]
  O    [ 1]     0.00000
  H    [ 2]     0.96000     0.00000
  CL   [ 3]     1.68300     2.23398     0.00000
 rotcon2
   Rotational constants (in cm-1): 
         23.3194678802             0.5042555132             0.4935823863
   Rotational constants (in MHz): 
     699100.1574462880         15117.2020938372         14797.2297547540
  ECPDATA file not present.   Using default ECPDATA. 
  @GTFLGS-I, Hessian will be transformed to curvilinear coordinates.
  There are  124 basis functions.
 @CHECKOUT-I, Total execution time (CPU/WALL):        0.17/       0.23 seconds.
--executable xjoda finished with status     0 in        0.29 seconds (walltime).
 --invoking executable--
/home/asmola/.local/bin/xvmol
 SERIAL VERSION OF MOLECULE STARTED
********************************************************************************
                    INPUT FROM MOL FILE
********************************************************************************
INTGRL        1    0    1    0    0    0    0    0    0                         
         *** CFOUR Program System (Release V0.1) ***                            
Hypochlorous acid DBOC calculation                                              
    3    1 Z          0.10E-08              0    0                              
   9999.00      3.00                                                            
          8.00000000    1    4    1    1    1    1                              
O #1  -2.123361974179927   0.119290150550243  -0.000000000000001                
   11    5                                                                      
   15330.0000000000       5.080000000000000E-004 -1.150000000000000E-004        
  0.000000000000000E+000  0.000000000000000E+000  0.000000000000000E+000        
   2299.00000000000       3.929000000000000E-003 -8.950000000000000E-004        
  0.000000000000000E+000  0.000000000000000E+000  0.000000000000000E+000        
   522.400000000000       2.024300000000000E-002 -4.636000000000000E-003        
  0.000000000000000E+000  0.000000000000000E+000  0.000000000000000E+000        
   147.300000000000       7.918100000000000E-002 -1.872400000000000E-002        
  0.000000000000000E+000  0.000000000000000E+000  0.000000000000000E+000        
   47.5500000000000       0.230687000000000      -5.846300000000000E-002        
  0.000000000000000E+000  0.000000000000000E+000  0.000000000000000E+000        
   16.7600000000000       0.433118000000000      -0.136463000000000             
  0.000000000000000E+000  0.000000000000000E+000  0.000000000000000E+000        
   6.20700000000000       0.350260000000000      -0.175740000000000             
  0.000000000000000E+000  0.000000000000000E+000  0.000000000000000E+000        
   1.75200000000000       4.272800000000000E-002  0.160934000000000             
   1.00000000000000       0.000000000000000E+000  0.000000000000000E+000        
  0.688200000000000      -8.154000000000000E-003  0.603418000000000             
  0.000000000000000E+000  0.000000000000000E+000  0.000000000000000E+000        
  0.238400000000000       2.381000000000000E-003  0.378765000000000             
  0.000000000000000E+000   1.00000000000000       0.000000000000000E+000        
  7.376000000000001E-002  0.000000000000000E+000  0.000000000000000E+000        
  0.000000000000000E+000  0.000000000000000E+000   1.00000000000000             
    6    4                                                                      
   34.4600000000000       1.592800000000000E-002  0.000000000000000E+000        
  0.000000000000000E+000  0.000000000000000E+000                                
   7.74900000000000       9.974000000000000E-002  0.000000000000000E+000        
  0.000000000000000E+000  0.000000000000000E+000                                
   2.28000000000000       0.310492000000000       0.000000000000000E+000        
  0.000000000000000E+000  0.000000000000000E+000                                
  0.715600000000000       0.491026000000000        1.00000000000000             
  0.000000000000000E+000  0.000000000000000E+000                                
  0.214000000000000       0.336337000000000       0.000000000000000E+000        
   1.00000000000000       0.000000000000000E+000                                
  5.974000000000000E-002  0.000000000000000E+000  0.000000000000000E+000        
  0.000000000000000E+000   1.00000000000000                                     
    3    3                                                                      
   2.31400000000000        1.00000000000000       0.000000000000000E+000        
  0.000000000000000E+000                                                        
  0.645000000000000       0.000000000000000E+000   1.00000000000000             
  0.000000000000000E+000                                                        
  0.214000000000000       0.000000000000000E+000  0.000000000000000E+000        
   1.00000000000000                                                             
    2    2                                                                      
   1.42800000000000        1.00000000000000       0.000000000000000E+000        
  0.500000000000000       0.000000000000000E+000   1.00000000000000             
          1.00000000    1    3    1    1    1                                   
H #2  -2.885450269034576  -1.527013634916980   0.000000000000003                
    6    4                                                                      
   33.8700000000000       6.068000000000000E-003  0.000000000000000E+000        
  0.000000000000000E+000  0.000000000000000E+000                                
   5.09500000000000       4.530800000000000E-002  0.000000000000000E+000        
  0.000000000000000E+000  0.000000000000000E+000                                
   1.15900000000000       0.202822000000000       0.000000000000000E+000        
  0.000000000000000E+000  0.000000000000000E+000                                
  0.325800000000000       0.503903000000000        1.00000000000000             
  0.000000000000000E+000  0.000000000000000E+000                                
  0.102700000000000       0.383421000000000       0.000000000000000E+000        
   1.00000000000000       0.000000000000000E+000                                
  2.526000000000000E-002  0.000000000000000E+000  0.000000000000000E+000        
  0.000000000000000E+000   1.00000000000000                                     
    3    3                                                                      
   1.40700000000000        1.00000000000000       0.000000000000000E+000        
  0.000000000000000E+000                                                        
  0.388000000000000       0.000000000000000E+000   1.00000000000000             
  0.000000000000000E+000                                                        
  0.102000000000000       0.000000000000000E+000  0.000000000000000E+000        
   1.00000000000000                                                             
    2    2                                                                      
   1.05700000000000        1.00000000000000       0.000000000000000E+000        
  0.247000000000000       0.000000000000000E+000   1.00000000000000             
         17.00000000    1    4    1    1    1    1                              
CL#3   1.054396116971674  -0.010554341234469   0.000000000000000                
   16    6                                                                      
   456100.000000000       4.929700000000000E-005 -1.383040000000000E-005        
  0.000000000000000E+000  4.185460000000000E-006  0.000000000000000E+000        
  0.000000000000000E+000                                                        
   68330.0000000000       3.830290000000000E-004 -1.072790000000000E-004        
  0.000000000000000E+000  3.243950000000000E-005  0.000000000000000E+000        
  0.000000000000000E+000                                                        
   15550.0000000000       2.008540000000000E-003 -5.650830000000000E-004        
  0.000000000000000E+000  1.711050000000000E-004  0.000000000000000E+000        
  0.000000000000000E+000                                                        
   4405.00000000000       8.385580000000000E-003 -2.361350000000000E-003        
  0.000000000000000E+000  7.141760000000000E-004  0.000000000000000E+000        
  0.000000000000000E+000                                                        
   1439.00000000000       2.947030000000000E-002 -8.458860000000000E-003        
  0.000000000000000E+000  2.567050000000000E-003  0.000000000000000E+000        
  0.000000000000000E+000                                                        
   520.400000000000       8.783249999999999E-002 -2.596380000000000E-002        
  0.000000000000000E+000  7.885520000000000E-003  0.000000000000000E+000        
  0.000000000000000E+000                                                        
   203.100000000000       0.211473000000000      -6.863619999999999E-002        
  0.000000000000000E+000  2.108670000000000E-002  0.000000000000000E+000        
  0.000000000000000E+000                                                        
   83.9600000000000       0.365364000000000      -0.141874000000000             
  0.000000000000000E+000  4.422640000000000E-002  0.000000000000000E+000        
  0.000000000000000E+000                                                        
   36.2000000000000       0.340884000000000      -0.199319000000000             
  0.000000000000000E+000  6.516700000000000E-002  0.000000000000000E+000        
  0.000000000000000E+000                                                        
   15.8300000000000       0.102133000000000      -1.956620000000000E-002        
  0.000000000000000E+000  6.030120000000000E-003  0.000000000000000E+000        
  0.000000000000000E+000                                                        
   6.33400000000000       3.116750000000000E-003  0.499741000000000             
  0.000000000000000E+000 -0.206495000000000       0.000000000000000E+000        
  0.000000000000000E+000                                                        
   2.69400000000000       1.057510000000000E-003  0.563736000000000             
  0.000000000000000E+000 -0.405871000000000       0.000000000000000E+000        
  0.000000000000000E+000                                                        
  0.976800000000000      -3.780000000000000E-004  7.903250000000001E-002        
   1.00000000000000       7.595580000000000E-002  0.000000000000000E+000        
  0.000000000000000E+000                                                        
  0.431300000000000       1.561360000000000E-004 -8.350910000000000E-003        
  0.000000000000000E+000  0.725661000000000       0.000000000000000E+000        
  0.000000000000000E+000                                                        
  0.162500000000000      -5.141260000000000E-005  2.324560000000000E-003        
  0.000000000000000E+000  0.394423000000000        1.00000000000000             
  0.000000000000000E+000                                                        
  5.910000000000000E-002  0.000000000000000E+000  0.000000000000000E+000        
  0.000000000000000E+000  0.000000000000000E+000  0.000000000000000E+000        
   1.00000000000000                                                             
   10    5                                                                      
   663.300000000000       2.404480000000000E-003  0.000000000000000E+000        
 -6.521450000000000E-004  0.000000000000000E+000  0.000000000000000E+000        
   156.800000000000       1.921480000000000E-002  0.000000000000000E+000        
 -5.194450000000000E-003  0.000000000000000E+000  0.000000000000000E+000        
   49.9800000000000       8.850970000000000E-002  0.000000000000000E+000        
 -2.469380000000000E-002  0.000000000000000E+000  0.000000000000000E+000        
   18.4200000000000       0.256020000000000       0.000000000000000E+000        
 -7.281670000000000E-002  0.000000000000000E+000  0.000000000000000E+000        
   7.24000000000000       0.436927000000000       0.000000000000000E+000        
 -0.134030000000000       0.000000000000000E+000  0.000000000000000E+000        
   2.92200000000000       0.350334000000000       0.000000000000000E+000        
 -9.477420000000000E-002  0.000000000000000E+000  0.000000000000000E+000        
   1.02200000000000       5.854950000000000E-002   1.00000000000000             
  0.262289000000000       0.000000000000000E+000  0.000000000000000E+000        
  0.381800000000000      -4.584230000000000E-003  0.000000000000000E+000        
  0.564667000000000       0.000000000000000E+000  0.000000000000000E+000        
  0.130100000000000       2.269700000000000E-003  0.000000000000000E+000        
  0.341250000000000        1.00000000000000       0.000000000000000E+000        
  4.190000000000000E-002  0.000000000000000E+000  0.000000000000000E+000        
  0.000000000000000E+000  0.000000000000000E+000   1.00000000000000             
    4    4                                                                      
   4.61000000000000        1.00000000000000       0.000000000000000E+000        
  0.000000000000000E+000  0.000000000000000E+000                                
   1.01100000000000       0.000000000000000E+000   1.00000000000000             
  0.000000000000000E+000  0.000000000000000E+000                                
  0.339000000000000       0.000000000000000E+000  0.000000000000000E+000        
   1.00000000000000       0.000000000000000E+000                                
  0.130000000000000       0.000000000000000E+000  0.000000000000000E+000        
  0.000000000000000E+000   1.00000000000000                                     
    2    2                                                                      
  0.706000000000000        1.00000000000000       0.000000000000000E+000        
  0.312000000000000       0.000000000000000E+000   1.00000000000000             
FINISH                                                                          
 
********************************************************************************
 ONE- AND TWO-ELECTRON INTEGRALS OVER SYMMETRY-ADAPTED AOS ARE CALCULATED.

  SPHERICAL HARMONICS ARE USED.
  
  INTEGRALS LESS THAN  0.10E-13 ARE NEGLECTED.

  NUCLEAR REPULSION ENERGY :   51.1984893666 A.U.
  @MOLECU-I, ONE ELECTRON INTEGRALS (CPU/WALL):        0.03/       0.04 SECONDS.
  @TWOEL-I,    5908220 INTEGRALS OF SYMMETRY TYPE  I I I I
  @TWOEL-I,    5650251 INTEGRALS OF SYMMETRY TYPE  I J I J
  @TWOEL-I,    2920901 INTEGRALS OF SYMMETRY TYPE  I I J J
  @TWOEL-I, TOTAL NUMBER OF 2-E INTEGRALS   14479372.
  @MOLECU-I, TWO ELECTRON INTEGRALS (CPU/WALL):       37.84/       5.66 SECONDS.
 @CHECKOUT-I, Total execution time (CPU/WALL):       37.88/       5.73 seconds.

Running with 14 threads/proc

--executable xvmol finished with status     0 in        5.78 seconds (walltime).
 --invoking executable--
/home/asmola/.local/bin/xvmol2ja
 @GETMEM-I,  Allocated    3814 MB of main memory.
 @CHECKOUT-I, Total execution time (CPU/WALL):        0.08/       0.03 seconds.
--executable xvmol2ja finished with status     0 in        0.07 seconds (walltime).
 --invoking executable--
/home/asmola/.local/bin/xvscf
  There are  124 functions in the AO basis.

  There are 2 irreducible representations.

       Irrep        # of functions
         1                 82
         2                 42


  Parameters for SCF calculation: 
        SCF reference function:  RHF  
  Maximum number of iterations:  150
     Full symmetry point group: C s 
     Computational point group: C s 
        Initial density matrix: MOREAD                 
     SCF convergence tolerance: 10**(-10)
  DIIS convergence acceleration:  ON
          Latest start for DIIS:   8
                     DIIS order:   6

  Memory information:     774068 words required.
  Fock matrices are constructed from AO integral file.
 @GETMEM-I,  Allocated       5 MB of main memory.
  Initialization and symmetry analysis required      0.002 seconds.

  @INITGES-I, Occupancies from core Hamiltonian:

          Alpha population by irrep:  10    3
           Beta population by irrep:  10    3


 total no. of electrons in initial guess :  0.000000000000000E+000
  --------------------------------------------------------------------
  Iteration         Total Energy            Largest Density Difference
  --------------------------------------------------------------------
       0            51.198489366631435              0.0000000000D+00
   current occupation vector 
    10  3
    10  3
       1          -414.765115575874916              0.1580692613D+02
   current occupation vector 
    10  3
    10  3
       2          -338.143151823621110              0.1580212534D+02
   current occupation vector 
    10  3
    10  3
       3          -435.092785943929016              0.1058621145D+02
   current occupation vector 
    10  3
    10  3
       4          -336.153775086494534              0.1058709210D+02
   current occupation vector 
    10  3
    10  3
       5          -435.430127135395537              0.1052362143D+02
   current occupation vector 
    10  3
    10  3
       6          -336.102199610531784              0.1052361328D+02
   current occupation vector 
    10  3
    10  3
       7          -435.445377143858877              0.1052072831D+02
   current occupation vector 
    10  3
    10  3
       8          -336.099959525356667              0.1052072742D+02
   current occupation vector 
    10  3
    10  3
       9          -472.562970021638534              0.7884425253D+01
   current occupation vector 
    10  3
    10  3
      10          -486.943750262093886              0.2603931546D+01
   current occupation vector 
    10  3
    10  3
      11          -516.266190198332879              0.2214060404D+01
   current occupation vector 
    11  2
    11  2
      12          -532.355806415823054              0.1624196037D+01
   current occupation vector 
    10  3
    10  3
      13          -534.134581719925109              0.7100877933D+00
   current occupation vector 
    10  3
    10  3
      14          -534.817481893617241              0.9933664886D+00
   current occupation vector 
    10  3
    10  3
      15          -534.908434789314924              0.3640605234D+00
   current occupation vector 
    10  3
    10  3
      16          -534.918514446893710              0.5522310848D-01
   current occupation vector 
    10  3
    10  3
      17          -534.922128910816014              0.5981558338D-01
   current occupation vector 
    10  3
    10  3
      18          -534.922529344757663              0.2145074551D-01
   current occupation vector 
    10  3
    10  3
      19          -534.922599068804629              0.9810850288D-02
   current occupation vector 
    10  3
    10  3
      20          -534.922607690970040              0.4275497341D-02
   current occupation vector 
    10  3
    10  3
      21          -534.922608640114731              0.1391079341D-02
   current occupation vector 
    10  3
    10  3
      22          -534.922608917623052              0.1153777950D-02
   current occupation vector 
    10  3
    10  3
      23          -534.922608920420316              0.9387936385D-04
   current occupation vector 
    10  3
    10  3
      24          -534.922608920529910              0.1288767977D-04
   current occupation vector 
    10  3
    10  3
      25          -534.922608920545258              0.4971470836D-05
   current occupation vector 
    10  3
    10  3
      26          -534.922608920551966              0.2189685026D-05
   current occupation vector 
    10  3
    10  3
      27          -534.922608920546281              0.5697024077D-06
   current occupation vector 
    10  3
    10  3
      28          -534.922608920551170              0.2379112520D-06
   current occupation vector 
    10  3
    10  3
      29          -534.922608920545144              0.8129554854D-07
   current occupation vector 
    10  3
    10  3
      30          -534.922608920549010              0.6112562478D-07
   current occupation vector 
    10  3
    10  3
      31          -534.922608920549465              0.1898672025D-07
   current occupation vector 
    10  3
    10  3
      32          -534.922608920549010              0.2407429811D-08
   current occupation vector 
    10  3
    10  3
      33          -534.922608920551625              0.9345703933D-09
   current occupation vector 
    10  3
    10  3
      34          -534.922608920553216              0.2509370489D-09
   current occupation vector 
    10  3
    10  3

  SCF has converged.

 Density matrix saved to file den.dat
 total electron number:   26.0000000000000     
     E(SCF)=      -534.922608920546736              0.5342598586D-10

  Eigenvector printing suppressed.

 @PUTMOS-I, Writing converged MOs to NEWMOS. 
 @PUTMOS-I, Symmetry   1 Full Blocks 20 Partial Blocksize   2
 @PUTMOS-I, Symmetry   2 Full Blocks 10 Partial Blocksize   2
 @PUTFOCK-I, Writing converged Fock matrix to NEWFOCK. 
 @PUTFOCK-I, Symmetry   1 Full Blocks 20 Partial Blocksize   2
 @PUTFOCK-I, Symmetry   2 Full Blocks 10 Partial Blocksize   2


 
  ORBITAL EIGENVALUES (ALPHA)  (1H = 27.2113834 eV)

       MO #        E(hartree)               E(eV)           FULLSYM    COMPSYM
       ----   --------------------   --------------------   -------   ---------
    1     1        -104.8944169191       -2854.3221953049     A'        A'  (1)
    2     2         -20.6374840736        -561.5744915378     A'        A'  (1)
    3     3         -10.6129561179        -288.7932179305     A'        A'  (1)
    4     4          -8.0802951509        -219.8760093364     A'        A'  (1)
    5     5          -8.0770445203        -219.7875551817     A'        A'  (1)
    6    83          -8.0768872477        -219.7832755744     A''       A'' (2)
    7     6          -1.4097191941         -38.3604094774     A'        A'  (1)
    8     7          -1.0653110373         -28.9885870764     A'        A'  (1)
    9     8          -0.7233049903         -19.6821294072     A'        A'  (1)
   10    84          -0.6119022650         -16.6507071352     A''       A'' (2)
   11     9          -0.6021643531         -16.3857250833     A'        A'  (1)
   12    10          -0.4660396221         -12.6815828374     A'        A'  (1)
   13    85          -0.4427438704         -12.0476732054     A''       A'' (2)
  +++++++++++++++++++++++++++++++++++++++++++++++++++++++++++++++++++++++++++++
   14    11           0.0281577980           0.7662126370     A'        A'  (1)
   15    12           0.0619630112           1.6860992530     A'        A'  (1)
   16    13           0.1103935576           3.0039614196     A'        A'  (1)
   17    86           0.1162130845           3.1623187978     A''       A'' (2)
   18    14           0.1398796489           3.8063187549     A'        A'  (1)
   19    15           0.1569764696           4.2715468997     A'        A'  (1)
   20    16           0.1729736189           4.7068514612     A'        A'  (1)
   21    17           0.1789370525           4.8691247412     A'        A'  (1)
   22    87           0.1874376117           5.1004367162     A''       A'' (2)
   23    18           0.2473244506           6.7300404499     A'        A'  (1)
   24    88           0.2611709404           7.1068225927     A''       A'' (2)
   25    19           0.3049652055           8.2985251297     A'        A'  (1)
   26    20           0.3217016042           8.7539456921     A'        A'  (1)
   27    89           0.3735503529          10.1648218714     A''       A'' (2)
   28    21           0.3877085776          10.5500867523     A'        A'  (1)
   29    90           0.4139821998          11.2650283598     A''       A'' (2)
   30    22           0.4229691605          11.5095759923     A'        A'  (1)
   31    23           0.4401505090          11.9771042531     A'        A'  (1)
   32    24           0.4899506176          13.3322341025     A'        A'  (1)
   33    91           0.6131755055          16.6853537703     A''       A'' (2)
   34    25           0.6161561736          16.7664618729     A'        A'  (1)
   35    26           0.6819224318          18.5560527415     A'        A'  (1)
   36    27           0.7054992789          19.1976113668     A'        A'  (1)
   37    92           0.7124419800          19.3865318686     A''       A'' (2)
   38    28           0.7186771410          19.5561992259     A'        A'  (1)
   39    93           0.7586734285          20.6445535383     A''       A'' (2)
   40    29           0.7881780918          21.4474162444     A'        A'  (1)
   41    30           0.8547807967          23.2597679821     A'        A'  (1)
   42    94           0.8609176930          23.4267614206     A''       A'' (2)
   43    95           0.8860440048          24.1104831252     A''       A'' (2)
   44    31           0.8927209834          24.2921729489     A'        A'  (1)
   45    32           0.9110705620          24.7914903676     A'        A'  (1)
   46    96           0.9237627723          25.1368629685     A''       A'' (2)
   47    33           0.9259017652          25.1950679241     A'        A'  (1)
   48    34           0.9658757107          26.2828142798     A'        A'  (1)
   49    35           0.9924049332          27.0047111258     A'        A'  (1)
   50    97           1.0110362689          27.5116955442     A''       A'' (2)
   51    36           1.0184255583          27.7127683303     A'        A'  (1)
   52    98           1.1322411606          30.8098483223     A''       A'' (2)
   53    37           1.1472591062          31.2185073990     A'        A'  (1)
   54    99           1.2216198419          33.2419658875     A''       A'' (2)
   55    38           1.2322016878          33.5299125535     A'        A'  (1)
   56    39           1.2869034970          35.0184244562     A'        A'  (1)
   57    40           1.3487512394          36.7013870876     A'        A'  (1)
   58   100           1.3897853531          37.8179820872     A''       A'' (2)
   59    41           1.3995942365          38.0848953727     A'        A'  (1)
   60   101           1.5080059969          41.0349293501     A''       A'' (2)
   61   102           1.5570586346          42.3697194817     A''       A'' (2)
   62    42           1.5973271735          43.4654821327     A'        A'  (1)
   63    43           1.6756463727          45.5966558898     A'        A'  (1)
   64    44           1.7408995008          47.3722837770     A'        A'  (1)
   65    45           1.9084325086          51.9310886845     A'        A'  (1)
   66    46           2.0931101278          56.9564221872     A'        A'  (1)
   67   103           2.1628638030          58.8545161853     A''       A'' (2)
   68    47           2.2384249110          60.9106384658     A'        A'  (1)
   69   104           2.2520201066          61.2805825464     A''       A'' (2)
   70    48           2.2749595955          61.9047977717     A'        A'  (1)
   71   105           2.2987579866          62.5523849179     A''       A'' (2)
   72    49           2.3318073616          63.4517041311     A'        A'  (1)
   73    50           2.3956226073          65.1882052499     A'        A'  (1)
   74    51           2.4108697529          65.6031011729     A'        A'  (1)
   75   106           2.4371126381          66.3172063854     A''       A'' (2)
   76   107           2.4578043255          66.8802558234     A''       A'' (2)
   77    52           2.4630112827          67.0219443320     A'        A'  (1)
   78   108           2.4965538706          67.9346845519     A''       A'' (2)
   79    53           2.5067806132          68.2129683647     A'        A'  (1)
   80    54           2.5462430212          69.2867950792     A'        A'  (1)
   81   109           2.7467332929          74.7424127303     A''       A'' (2)
   82    55           2.8387407232          77.2460621934     A'        A'  (1)
   83   110           2.9245625629          79.5813931757     A''       A'' (2)
   84    56           2.9609581706          80.5717680121     A'        A'  (1)
   85    57           2.9791182255          81.0659282277     A'        A'  (1)
   86   111           3.0568673609          83.1815897605     A''       A'' (2)
   87    58           3.0684209503          83.4959789112     A'        A'  (1)
   88   112           3.1296822823          85.1629845039     A''       A'' (2)
   89    59           3.1323665321          85.2360266557     A'        A'  (1)
   90    60           3.2878228615          89.4662084359     A'        A'  (1)
   91   113           3.3698045242          91.6970428913     A''       A'' (2)
   92    61           3.3813337865          92.0107700685     A'        A'  (1)
   93    62           3.6684452901          99.8234712703     A'        A'  (1)
   94    63           3.7616455641         102.3595796600     A'        A'  (1)
   95   114           4.1415430848         112.6971167472     A''       A'' (2)
   96   115           4.1786666777         113.7073010674     A''       A'' (2)
   97    64           4.3062942018         117.1802225594     A'        A'  (1)
   98   116           4.3674570839         118.8445491935     A''       A'' (2)
   99    65           4.5777752259         124.5675967915     A'        A'  (1)
  100    66           4.7212794588         128.4725454907     A'        A'  (1)
  101    67           4.8231328979         131.2441184733     A'        A'  (1)
  102    68           5.2003793416         141.5095160903     A'        A'  (1)
  103   117           5.3256611512         144.9186074432     A''       A'' (2)
  104    69           5.5717862062         151.6160106805     A'        A'  (1)
  105    70           6.1283379933         166.7605547406     A'        A'  (1)
  106    71           6.3070227644         171.6228145552     A'        A'  (1)
  107   118           6.6362785270         180.5823193473     A''       A'' (2)
  108    72           6.6827373658         181.8465286228     A'        A'  (1)
  109   119           6.7451903691         183.5459612392     A''       A'' (2)
  110    73           6.7786846903         184.4573880555     A'        A'  (1)
  111   120           7.1307183929         194.0367121065     A''       A'' (2)
  112    74           7.1791842841         195.3555360539     A'        A'  (1)
  113   121           7.2005906562         195.9380330530     A''       A'' (2)
  114    75           7.2522624752         197.3440947296     A'        A'  (1)
  115   122           7.2765159779         198.0040660913     A''       A'' (2)
  116    76           7.4423244885         202.5159450425     A'        A'  (1)
  117    77           7.6513137007         208.2028306239     A'        A'  (1)
  118    78           8.0664989705         219.5005961825     A'        A'  (1)
  119   123           8.7721159236         238.7014096264     A''       A'' (2)
  120    79           8.7726517558         238.7159903628     A'        A'  (1)
  121   124           8.8223230889         240.0676160520     A''       A'' (2)
  122    80           8.8862221371         241.8063975515     A'        A'  (1)
  123    81           9.2557617595         251.8620818960     A'        A'  (1)
  124    82          14.5497894962         395.9199003707     A'        A'  (1)


  VSCF finished.

 @CHECKOUT-I, Total execution time (CPU/WALL):       39.57/       4.99 seconds.
--executable xvscf finished with status     0 in        5.02 seconds (walltime).
 --invoking executable--
/home/asmola/.local/bin/xvtran
 @GETMEM-I,  Allocated    3814 MB of main memory.
  Full RHF integral transformation
  Transformation of IIII integrals :
  1 pass through the AO integral file was required.
     5908220 AO integrals were read.
     6200062 MO integrals were written to HF2.
  Transformation of IIJJ integrals :
  1 pass through the AO integral file was required.
     2920901 AO integrals were read.
     3072909 MO integrals were written to HF2.
  Transformation of IJIJ integrals :
  1 pass through the AO integral file was required.
     5650251 AO integrals were read.
     5932290 MO integrals were written to HF2.
  Summary of active molecular orbitals: 
------------------------------------------------------------------------
 
  Index      Eigenvalue    Symmetry    Index      Eigenvalue    Symmetry
------------------------------------------------------------------------
     1      -104.8944169        1        63         3.2878229        1
     2       -20.6374841        1        64         3.3813338        1
     3       -10.6129561        1        65         3.6684453        1
     4        -8.0802952        1        66         3.7616456        1
     5        -8.0770445        1        67         4.3062942        1
     6        -1.4097192        1        68         4.5777752        1
     7        -1.0653110        1        69         4.7212795        1
     8        -0.7233050        1        70         4.8231329        1
     9        -0.6021644        1        71         5.2003793        1
    10        -0.4660396        1        72         5.5717862        1
    11        -8.0768872        2        73         6.1283380        1
    12        -0.6119023        2        74         6.3070228        1
    13        -0.4427439        2        75         6.6827374        1
    14         0.0281578        1        76         6.7786847        1
    15         0.0619630        1        77         7.1791843        1
    16         0.1103936        1        78         7.2522625        1
    17         0.1398796        1        79         7.4423245        1
    18         0.1569765        1        80         7.6513137        1
    19         0.1729736        1        81         8.0664990        1
    20         0.1789371        1        82         8.7726518        1
    21         0.2473245        1        83         8.8862221        1
    22         0.3049652        1        84         9.2557618        1
    23         0.3217016        1        85        14.5497895        1
    24         0.3877086        1        86         0.1162131        2
    25         0.4229692        1        87         0.1874376        2
    26         0.4401505        1        88         0.2611709        2
    27         0.4899506        1        89         0.3735504        2
    28         0.6161562        1        90         0.4139822        2
    29         0.6819224        1        91         0.6131755        2
    30         0.7054993        1        92         0.7124420        2
    31         0.7186771        1        93         0.7586734        2
    32         0.7881781        1        94         0.8609177        2
    33         0.8547808        1        95         0.8860440        2
    34         0.8927210        1        96         0.9237628        2
    35         0.9110706        1        97         1.0110363        2
    36         0.9259018        1        98         1.1322412        2
    37         0.9658757        1        99         1.2216198        2
    38         0.9924049        1       100         1.3897854        2
    39         1.0184256        1       101         1.5080060        2
    40         1.1472591        1       102         1.5570586        2
    41         1.2322017        1       103         2.1628638        2
    42         1.2869035        1       104         2.2520201        2
    43         1.3487512        1       105         2.2987580        2
    44         1.3995942        1       106         2.4371126        2
    45         1.5973272        1       107         2.4578043        2
    46         1.6756464        1       108         2.4965539        2
    47         1.7408995        1       109         2.7467333        2
    48         1.9084325        1       110         2.9245626        2
    49         2.0931101        1       111         3.0568674        2
    50         2.2384249        1       112         3.1296823        2
    51         2.2749596        1       113         3.3698045        2
    52         2.3318074        1       114         4.1415431        2
    53         2.3956226        1       115         4.1786667        2
    54         2.4108698        1       116         4.3674571        2
    55         2.4630113        1       117         5.3256612        2
    56         2.5067806        1       118         6.6362785        2
    57         2.5462430        1       119         6.7451904        2
    58         2.8387407        1       120         7.1307184        2
    59         2.9609582        1       121         7.2005907        2
    60         2.9791182        1       122         7.2765160        2
    61         3.0684210        1       123         8.7721159        2
    62         3.1323665        1       124         8.8223231        2
------------------------------------------------------------------------
  -104.894416919093       -20.6374840735889       -10.6129561178603     
  -8.08029515090478       -8.07704452033395       -1.40971919411393     
  -1.06531103730692      -0.723304990337974      -0.602164353147820     
 -0.466039622129656       -8.07688724765239      -0.611902264960474     
 -0.442743870399222       2.815779799636867E-002  6.196301115102920E-002
  0.110393557558801       0.139879648857103       0.156976469623240     
  0.172973618870865       0.178937052541612       0.247324450615957     
  0.304965205468974       0.321701604195117       0.387708577589578     
  0.422969160483492       0.440150508964137       0.489950617595806     
  0.616156173554314       0.681922431826582       0.705499278908297     
  0.718677141049468       0.788178091835309       0.854780796705088     
  0.892720983415281       0.911070562019112       0.925901765220187     
  0.965875710669045       0.992404933214995        1.01842555826304     
   1.14725910623721        1.23220168782239        1.28690349701914     
   1.34875123944063        1.39959423645874        1.59732717347485     
   1.67564637267915        1.74089950079408        1.90843250859884     
   2.09311012784533        2.23842491101816        2.27495959546452     
   2.33180736158681        2.39562260733416        2.41086975287512     
   2.46301128269668        2.50678061317079        2.54624302118913     
   2.83874072324498        2.96095817062155        2.97911822548822     
   3.06842095030125        3.13236653214963        3.28782286151420     
   3.38133378652599        3.66844529007851        3.76164556411315     
   4.30629420183834        4.57777522592041        4.72127945875466     
   4.82313289787605        5.20037934162163        5.57178620622731     
   6.12833799330643        6.30702276442290        6.68273736581881     
   6.77868469030113        7.17918428410046        7.25226247517996     
   7.44232448845191        7.65131370071888        8.06649897051870     
   8.77265175583881        8.88622213714641        9.25576175946941     
   14.5497894962103       0.116213084478262       0.187437611724829     
  0.261170940418140       0.373550352880128       0.413982199809824     
  0.613175505451184       0.712441980020187       0.758673428499078     
  0.860917693019080       0.886044004849316       0.923762772328574     
   1.01103626889341        1.13224116059810        1.22161984191987     
   1.38978535310900        1.50800599686031        1.55705863457510     
   2.16286380299527        2.25202010664489        2.29875798662620     
   2.43711263814066        2.45780432550230        2.49655387060856     
   2.74673329288899        2.92456256287447        3.05686736090331     
   3.12968228230272        3.36980452420823        4.14154308476509     
   4.17866667768849        4.36745708391804        5.32566115117843     
   6.63627852699533        6.74519036908702        7.13071839289440     
   7.20059065622447        7.27651597791694        8.77211592360207     
   8.82232308894524     
 @CHECKOUT-I, Total execution time (CPU/WALL):       14.50/       7.24 seconds.
--executable xvtran finished with status     0 in        7.28 seconds (walltime).
 --invoking executable--
/home/asmola/.local/bin/xintprc
 @GETMEM-I,  Allocated    3814 MB of main memory.
  Processing integrals for CCSD calculation.
  @GMOIAA-I, Processing MO integrals for spin case AA.
  @GMOIAA-I, Generation of integral list completed.
                      TYPE                NUMBER
                      ----               --------
                      PPPP               9752772
                      PPPH               4554144
                      PPHH                534624
                      PHPH                292128
                      PHHH                 69237
                      HHHH                  2356

                     TOTAL              15205261

  @FORMT2-I, Second-order MP correlation energies:
            ------------------------------------------------
            E(SCF)                  =   -534.922608920547 a.u.
            E2(AA)                  =     -0.074408849920 a.u.
            E2(AB)                  =     -0.420431080547 a.u.
            E2(TOT)                 =     -0.569248780386 a.u.
            Total MP2 energy        =   -535.491857700933 a.u.
            ------------------------------------------------
   Largest T2 amplitudes for spin case AB:
       _       _                 _       _                 _       _
   i   j   a   b             i   j   a   b             i   j   a   b
-----------------------------------------------------------------------------
[  9   9  15  15]-0.01940 [  9   9  17  17]-0.01886 [  9   9  17  15] 0.01830
[  9   9  15  17] 0.01830 [ 13  13  90  90]-0.01705 [ 10  10  33  33]-0.01556
[ 13  13  94  94]-0.01522 [ 13  13  91  91]-0.01515 [  9   9  18  17]-0.01304
[  9   9  17  18]-0.01304 [  9   9  18  15] 0.01297 [  9   9  15  18] 0.01297
[  8   8  25  25]-0.01287 [ 13  13  95  95]-0.01274 [ 10  10  26  26]-0.01226
-----------------------------------------------------------------------------
   Norm of T2AB vector (  1067805 symmetry allowed elements):  0.3194146303.
-----------------------------------------------------------------------------
 @CHECKOUT-I, Total execution time (CPU/WALL):        3.49/       2.47 seconds.
--executable xintprc finished with status     0 in        2.55 seconds (walltime).
  calling xvcc 
 --invoking executable--
/home/asmola/.local/bin/xvcc
 @GETMEM-I,  Allocated    3814 MB of main memory.
   CCSD energy will be calculated.
   The total correlation energy is -0.569248780386 a.u.
   The total correlation energy is -0.570699571284 a.u.
  Convergence information after     1 iterations: 
  Largest element of residual vector : -0.12125722E-01.
  Largest element of DIIS residual   : -0.12125722E-01.
   The total correlation energy is -0.583297874233 a.u.
  Convergence information after     2 iterations: 
  Largest element of residual vector : -0.28199423E-02.
  Largest element of DIIS residual   : -0.26376470E-02.
   The total correlation energy is -0.583427216714 a.u.
  Convergence information after     3 iterations: 
  Largest element of residual vector : -0.19773962E-02.
  Largest element of DIIS residual   : -0.11520526E-02.
   The total correlation energy is -0.584718348288 a.u.
  Convergence information after     4 iterations: 
  Largest element of residual vector :  0.27660005E-03.
  Largest element of DIIS residual   :  0.25793193E-03.
   The total correlation energy is -0.584842190943 a.u.
  Convergence information after     5 iterations: 
  Largest element of residual vector : -0.26458717E-03.
  Largest element of DIIS residual   : -0.19916059E-03.
   The total correlation energy is -0.584845960322 a.u.
  Convergence information after     6 iterations: 
  Largest element of residual vector : -0.11713480E-03.
  Largest element of DIIS residual   : -0.87615462E-04.
   The total correlation energy is -0.584847038673 a.u.
  Convergence information after     7 iterations: 
  Largest element of residual vector : -0.86272055E-04.
  Largest element of DIIS residual   : -0.60127412E-04.
   The total correlation energy is -0.584846307753 a.u.
  Convergence information after     8 iterations: 
  Largest element of residual vector : -0.39873537E-04.
  Largest element of DIIS residual   : -0.25133174E-04.
   The total correlation energy is -0.584846335379 a.u.
  Convergence information after     9 iterations: 
  Largest element of residual vector : -0.21786997E-04.
  Largest element of DIIS residual   : -0.12457968E-04.
   The total correlation energy is -0.584847164758 a.u.
  Convergence information after    10 iterations: 
  Largest element of residual vector : -0.10692526E-04.
  Largest element of DIIS residual   : -0.54571361E-05.
   The total correlation energy is -0.584847484753 a.u.
  Convergence information after    11 iterations: 
  Largest element of residual vector : -0.29830384E-05.
  Largest element of DIIS residual   :  0.22060500E-05.
   The total correlation energy is -0.584847662165 a.u.
  Convergence information after    12 iterations: 
  Largest element of residual vector : -0.19662910E-05.
  Largest element of DIIS residual   : -0.10043119E-05.
   The total correlation energy is -0.584847722716 a.u.
  Convergence information after    13 iterations: 
  Largest element of residual vector : -0.51388889E-06.
  Largest element of DIIS residual   : -0.45828828E-06.
   The total correlation energy is -0.584847729408 a.u.
  Convergence information after    14 iterations: 
  Largest element of residual vector : -0.38093931E-06.
  Largest element of DIIS residual   : -0.22854596E-06.
   The total correlation energy is -0.584847731383 a.u.
  Convergence information after    15 iterations: 
  Largest element of residual vector : -0.16814448E-06.
  Largest element of DIIS residual   :  0.12498405E-06.
   The total correlation energy is -0.584847731011 a.u.
  Convergence information after    16 iterations: 
  Largest element of residual vector : -0.10930021E-06.
  Largest element of DIIS residual   : -0.49506684E-07.
   The total correlation energy is -0.584847732503 a.u.
  Convergence information after    17 iterations: 
  Largest element of residual vector : -0.54124428E-07.
  Largest element of DIIS residual   : -0.30187004E-07.
   The total correlation energy is -0.584847733042 a.u.
  Convergence information after    18 iterations: 
  Largest element of residual vector : -0.18758887E-07.
  Largest element of DIIS residual   : -0.13925677E-07.
   The total correlation energy is -0.584847733208 a.u.
  Convergence information after    19 iterations: 
  Largest element of residual vector : -0.12768150E-07.
  Largest element of DIIS residual   : -0.70957948E-08.
   The total correlation energy is -0.584847733412 a.u.
  Convergence information after    20 iterations: 
  Largest element of residual vector : -0.40219469E-08.
  Largest element of DIIS residual   : -0.29235801E-08.
   The total correlation energy is -0.584847733418 a.u.
  Convergence information after    21 iterations: 
  Largest element of residual vector : -0.23887818E-08.
  Largest element of DIIS residual   : -0.15310777E-08.
   The total correlation energy is -0.584847733433 a.u.
  Convergence information after    22 iterations: 
  Largest element of residual vector : -0.11132456E-08.
  Largest element of DIIS residual   : -0.86558299E-09.
   The total correlation energy is -0.584847733435 a.u.
  Convergence information after    23 iterations: 
  Largest element of residual vector : -0.68137651E-09.
  Largest element of DIIS residual   :  0.37605692E-09.
   The total correlation energy is -0.584847733434 a.u.
  Convergence information after    24 iterations: 
  Largest element of residual vector : -0.33275741E-09.
  Largest element of DIIS residual   : -0.25838400E-09.
   The total correlation energy is -0.584847733439 a.u.
  Convergence information after    25 iterations: 
  Largest element of residual vector : -0.16573042E-09.
  Largest element of DIIS residual   : -0.13229377E-09.
   The total correlation energy is -0.584847733439 a.u.
  Convergence information after    26 iterations: 
  Largest element of residual vector : -0.10661934E-09.
  Largest element of DIIS residual   : -0.77646356E-10.
   The total correlation energy is -0.584847733440 a.u.
  Convergence information after    27 iterations: 
  Largest element of residual vector : -0.51421353E-10.
  Largest element of DIIS residual   : -0.31489161E-10.
  Amplitude equations converged in    27iterations.
   The total correlation energy is -0.584847733441 a.u.
   The CC iterations have converged.

   Largest T1 amplitudes for spin case AA:
   i       a                 i       a                 i       a    
-----------------------------------------------------------------------------
[ 12      90    ]-0.01467 [ 12      87    ]-0.01338 [  9      38    ] 0.00860
[  9      17    ] 0.00760 [ 13      87    ]-0.00750 [  9      39    ]-0.00726
[  9      15    ]-0.00667 [ 12      88    ]-0.00609 [  9      27    ]-0.00602
[  8      39    ] 0.00589 [ 12      94    ]-0.00582 [  7      27    ]-0.00567
[  9      23    ]-0.00559 [  9      47    ] 0.00511 [ 12      86    ]-0.00502
-----------------------------------------------------------------------------
   Norm of T1AA vector (      837 symmetry allowed elements):  0.0436107322.
-----------------------------------------------------------------------------
   Largest T2 amplitudes for spin case AB:
       _       _                 _       _                 _       _
   i   j   a   b             i   j   a   b             i   j   a   b
-----------------------------------------------------------------------------
[  9   9  15  15]-0.02370 [  9   9  17  17]-0.02278 [  9   9  17  15] 0.02244
[  9   9  15  17] 0.02244 [ 13  13  90  90]-0.01846 [ 10  10  33  33]-0.01792
[ 13  13  94  94]-0.01693 [  9   9  18  15] 0.01625 [  9   9  15  18] 0.01625
[  9   9  18  17]-0.01617 [  9   9  17  18]-0.01617 [ 13  13  91  91]-0.01592
[  8   8  25  25]-0.01471 [ 13  13  95  95]-0.01421 [  9   9  20  15] 0.01416
-----------------------------------------------------------------------------
   Norm of T2AB vector (  1067805 symmetry allowed elements):  0.3530488175.
-----------------------------------------------------------------------------
       Summary of iterative solution of CC equations 
      -----------------------------------------------------------
                       Correlation           Total
       Iteration         Energy              Energy
      -----------------------------------------------------------
            0        -0.569248780386    -535.491857700933  DIIS 
            1        -0.570699571284    -535.493308491831  DIIS 
            2        -0.583297874233    -535.505906794780  DIIS 
            3        -0.583427216714    -535.506036137261  DIIS 
            4        -0.584718348288    -535.507327268834  DIIS 
            5        -0.584842190943    -535.507451111490  DIIS 
            6        -0.584845960322    -535.507454880868  DIIS 
            7        -0.584847038673    -535.507455959220  DIIS 
            8        -0.584846307753    -535.507455228299  DIIS 
            9        -0.584846335379    -535.507455255925  DIIS 
           10        -0.584847164758    -535.507456085305  DIIS 
           11        -0.584847484753    -535.507456405300  DIIS 
           12        -0.584847662165    -535.507456582711  DIIS 
           13        -0.584847722716    -535.507456643262  DIIS 
           14        -0.584847729408    -535.507456649955  DIIS 
           15        -0.584847731383    -535.507456651930  DIIS 
           16        -0.584847731011    -535.507456651557  DIIS 
           17        -0.584847732503    -535.507456653050  DIIS 
           18        -0.584847733042    -535.507456653589  DIIS 
           19        -0.584847733208    -535.507456653755  DIIS 
           20        -0.584847733412    -535.507456653958  DIIS 
           21        -0.584847733418    -535.507456653964  DIIS 
           22        -0.584847733433    -535.507456653980  DIIS 
           23        -0.584847733435    -535.507456653982  DIIS 
           24        -0.584847733434    -535.507456653981  DIIS 
           25        -0.584847733439    -535.507456653986  DIIS 
           26        -0.584847733439    -535.507456653986  DIIS 
           27        -0.584847733441    -535.507456653987  DIIS 
      -----------------------------------------------------------
      A miracle has come to pass. The CC iterations have converged.
      The reference energy is      -534.92260892054674 a.u.
      The correlation energy is      -0.58484773344056 a.u.
      The total energy is          -535.50745665398733 a.u.
 @CHECKOUT-I, Total execution time (CPU/WALL):      197.02/      24.82 seconds.
--executable xvcc finished with status     0 in       24.89 seconds (walltime).
 --invoking executable--
/home/asmola/.local/bin/xlambda
 @GETMEM-I,  Allocated    3814 MB of main memory.
 The Lambda equations are solved for CCSD.
  Initial lambda amplitudes: 
  Convergence information after     1 iterations: 
  Largest element of residual vector :  0.30441251E-02.
  Largest element of DIIS residual   :  0.30441251E-02.
  Convergence information after     2 iterations: 
  Largest element of residual vector : -0.36686926E-03.
  Largest element of DIIS residual   : -0.41460264E-03.
  Convergence information after     3 iterations: 
  Largest element of residual vector :  0.42548622E-03.
  Largest element of DIIS residual   :  0.33435749E-03.
  Convergence information after     4 iterations: 
  Largest element of residual vector :  0.13480433E-03.
  Largest element of DIIS residual   :  0.62542086E-04.
  Convergence information after     5 iterations: 
  Largest element of residual vector :  0.66676913E-04.
  Largest element of DIIS residual   :  0.55858551E-04.
  Convergence information after     6 iterations: 
  Largest element of residual vector :  0.38405741E-04.
  Largest element of DIIS residual   :  0.21706509E-04.
  Convergence information after     7 iterations: 
  Largest element of residual vector :  0.21861999E-04.
  Largest element of DIIS residual   :  0.14557639E-04.
  Convergence information after     8 iterations: 
  Largest element of residual vector :  0.99059048E-05.
  Largest element of DIIS residual   : -0.48413927E-05.
  Convergence information after     9 iterations: 
  Largest element of residual vector :  0.48773572E-05.
  Largest element of DIIS residual   :  0.25875862E-05.
  Convergence information after    10 iterations: 
  Largest element of residual vector :  0.18257868E-05.
  Largest element of DIIS residual   : -0.11398886E-05.
  Convergence information after    11 iterations: 
  Largest element of residual vector :  0.68909181E-06.
  Largest element of DIIS residual   : -0.39555855E-06.
  Convergence information after    12 iterations: 
  Largest element of residual vector : -0.33476148E-06.
  Largest element of DIIS residual   : -0.18673429E-06.
  Convergence information after    13 iterations: 
  Largest element of residual vector : -0.15487322E-06.
  Largest element of DIIS residual   : -0.99571999E-07.
  Amplitude equations converged in    13 iterations.
 
  Full Fbar is constructed for CCSD second derivatives
 
      The lambda equations have converged.
 @CHECKOUT-I, Total execution time (CPU/WALL):      108.67/      13.89 seconds.
--executable xlambda finished with status     0 in       13.95 seconds (walltime).
 --invoking executable--
/home/asmola/.local/bin/xdens
 @GETMEM-I,  Allocated    3814 MB of main memory.
  CCSD density and intermediates are calculated.
  Unrelaxed density for DBOC is calculated
  sort for dboc
  ----------------------------------------------------------------------
                 Natural orbital occupation numbers
  ----------------------------------------------------------------------
  1.99999  1.99951  1.99925  1.99787  1.99786  1.99767  1.98067  1.97082
  1.96579  1.96252  1.94913  1.94878  1.93370  0.06225  0.02529  0.02323
  0.01995  0.01993  0.01891  0.01384  0.01240  0.01079  0.00941  0.00934
  0.00662  0.00618  0.00609  0.00594  0.00512  0.00484  0.00300  0.00168
  0.00165  0.00157  0.00157  0.00149  0.00144  0.00143  0.00117  0.00116
  0.00114  0.00104  0.00101  0.00099  0.00096  0.00088  0.00084  0.00083
  0.00076  0.00072  0.00067  0.00064  0.00063  0.00059  0.00058  0.00055
  0.00052  0.00051  0.00050  0.00048  0.00048  0.00045  0.00044  0.00043
  0.00030  0.00025  0.00021  0.00021  0.00016  0.00014  0.00014  0.00012
  0.00011  0.00011  0.00010  0.00010  0.00010  0.00010  0.00008  0.00008
  0.00008  0.00007  0.00007  0.00007  0.00006  0.00006  0.00006  0.00006
  0.00005  0.00005  0.00005  0.00005  0.00005  0.00004  0.00004  0.00004
  0.00004  0.00003  0.00003  0.00002  0.00002  0.00002  0.00002  0.00001
  0.00001  0.00001  0.00001  0.00001  0.00001  0.00001  0.00001  0.00001
  0.00000  0.00000  0.00000  0.00000  0.00000  0.00000  0.00000  0.00000
  0.00000  0.00000  0.00000  0.00000
  Trace of density matrix :  26.0000000000.
  ----------------------------------------------------------------------
  Density calculation successfully completed.
 @CHECKOUT-I, Total execution time (CPU/WALL):       11.08/       1.80 seconds.
--executable xdens finished with status     0 in        1.87 seconds (walltime).
 --invoking executable--
/home/asmola/.local/bin/xvdint
 @GETMEM-I,  Allocated    3814 MB of main memory.
 One- and two-electron integral derivatives are calculated
 for RHF-CC/MBPT hessians and dipole derivatives.
 Spherical gaussians are used.
  magnet F F
  Integrals for DBOC will be evaluated
 
   First contribution to E(DBOC):       28.71692 cm-1
   Second contribution to E(DBOC):    -2230.79155 cm-1
 Evaluation of 1e integral derivatives required    1.41 seconds.
 Evaluation of 2el integral derivatives
 Evaluation of 2e integral derivatives required  140.63 seconds.
 @CHECKOUT-I, Total execution time (CPU/WALL):      142.08/      17.89 seconds.
--executable xvdint finished with status     0 in       18.57 seconds (walltime).
 --invoking executable--
/home/asmola/.local/bin/xcphf
 @GETMEM-I,  Allocated    3814 MB of main memory.
 Coupled-perturbed HF (CPHF) equations 
 are solved for RHF-CC/MBPT hessian and dipole derivatives.
  irreducible representation Nr.                      1
  # geometric perturbations                          6
  irreducible representation Nr.                      2
  # geometric perturbations                          3
 There are 8 perturbations within irrep 1.
 CPHF converged after  27 iterations.
 There are 4 perturbations within irrep 2.
 CPHF converged after  24 iterations.

                     SCF static dipole polarizability
                     --------------------------------

                         Ex          Ey          Ez

            Ex      28.694036    0.768349    0.000000
[...]
 term  0.429410592596501     
 final tnorm  0.848854382310894     
  norm contr. I: |<0|L dT/dx|0>|^2   0.000000000000000E+000
  norm contr. II: <0|[nabla(1+L)e-T][nabla e^T]|0>  0.429410592596501     
  total norm contribution  0.429410592596501     
 oo  2.291711470966759E-003
 vv  -1.44058776577566     
 vo -2.485355383497448E-002
  Correlated perturbed 1-el contribution to DBOC  -1.46314960813967       cm**-1
  SUM_I |dc_I/dx|^2 contribution to DBOC  0.739437444197688       cm**-1
 
 
  The total diagonal Born-Oppenheimer correction (DBOC) is:      0.0086066292 a.u.
  The total diagonal Born-Oppenheimer correction (DBOC) is:       1888.936762 cm-1
 
 Total CC energy including DBOC  -535.498850024827     
 First-order density matrix is being calculated  (Symmetry block 2, perturbation   3)
 Calculation of the contributions of <pq||rs> to dI(i,j)/dx required   1.4 seconds.
 Calculation of the contributions of <pq||rs> to dI(a,b)/dx required   6.4 seconds.
 Calculation of the contributions of <pq||rs> to dI(i,a)/dx required   3.7 seconds.
 First-order Z-vector equations are solved for 1 perturbation.
 Convergence reached after  21 iterations.
        U*G(pq,rs) contribution is being calculated
             (Symmetry block 2, perturbation   3)

 CCSD contribution to force constants 

        0.0000000000        0.0000000000        0.0000000000
        0.0000000000        0.0000000000        0.0000000000
        0.0000000000        0.0000000000        0.0000000000
        0.0000000000        0.0000000000        0.0000000000
        0.0000000000        0.0000000000        0.0000000000
        0.0000000000        0.0000000000        0.0000000000
        0.0000000000        0.0000000000        0.0000000000
        0.0000000000        0.0000000000        0.0000000000
        0.0000000000        0.0000000000        0.0000000000
        0.0000000000        0.0000000000        0.0000000000
        0.0000000000        0.0000000000        0.0000000000
        0.0000000000        0.0000000000        0.0000000000
        0.0000000000        0.0000000000        0.0000000000
        0.0000000000        0.0000000000        0.0000000000
        0.0000000000        0.0000000000        0.0000000000
        0.0000000000        0.0000000000        0.0000000000
        0.0000000000        0.0000000000        0.0000000000
        0.0000000000        0.0000000000        0.0000000000
        0.0000000000        0.0000000000        0.0000000000
        0.0000000000        0.0000000000        0.0000000000
        0.0000000000        0.0000000000        0.0000000000
        0.0000000000        0.0000000000        0.0000000000
        0.0000000000        0.0000000000        0.0000000000
        0.0000000000        0.0000000000        0.0000000000
        0.0000000000        0.0000000000        0.0000000000
        0.0000000000        0.0000000000        0.0000000000
        0.2335323892       -0.0565930587       -0.1769393305

 CCSD contribution to dipole derivatives 

        0.0000000000        0.0000000000        0.0000000000
        0.0000000000        0.0000000000        0.0000000000
        0.0000000000        0.0000000000        0.0000000000
        0.0000000000        0.0000000000        0.0000000000
        0.0000000000        0.0000000000        0.0000000000
        0.0000000000        0.0000000000        0.0000000000
        0.0000000000        0.0000000000        0.0000000000
        0.0000000000        0.0000000000        0.0000000000
        0.0000000000        0.0000000000        0.0175755693
 @CHECKOUT-I, Total execution time (CPU/WALL):      432.19/      72.74 seconds.
--executable xsdcc finished with status     0 in       72.83 seconds (walltime).
 --invoking executable--
/home/asmola/.local/bin/xanti
 @GETMEM-I,  Allocated    3814 MB of main memory.
 CCSD MO derivative gammas will be sorted to Mulliken order.
 @CHECKOUT-I, Total execution time (CPU/WALL):        3.20/       1.80 seconds.
--executable xanti finished with status     0 in        1.86 seconds (walltime).
 --invoking executable--
/home/asmola/.local/bin/xbcktrn
 @GETMEM-I,  Allocated    3814 MB of main memory.
 CCSD MO derivative gammas will be transformed to the AO basis.
 @CHECKOUT-I, Total execution time (CPU/WALL):        4.85/       0.67 seconds.
--executable xbcktrn finished with status     0 in        0.72 seconds (walltime).
 --invoking executable--
/home/asmola/.local/bin/xvdint
 @GETMEM-I,  Allocated    3814 MB of main memory.
 One- and two-electron integral derivatives are calculated
 for RHF-CC/MBPT hessians and dipole derivatives.
 Spherical gaussians are used.
  magnet F F
 Evaluation of 2el integral derivatives

                      Two-electron integral gradient
                      ------------------------------

                         O #1 x     0.0000000000
                         O #1 y     0.0000000000
                         H #2 x     0.0000000000
                         H #2 y     0.0000000000
                         CL#3 x     0.0000000000
                         CL#3 y     0.0000000000


 O #1       0.0000000000            0.0000000000           -0.0942424706
 H #2       0.0000000000            0.0000000000           -0.0005502035
 CL#3       0.0000000000            0.0000000000            0.0947926742


 Evaluation of 2e integral derivatives required   62.09 seconds.
  contribution to Hessian
        0.0000000000        0.0000000000        0.0000000000
        0.0000000000        0.0000000000        0.0000000000
       -0.0942424706       -0.0005502035        0.0947926742
 @CHECKOUT-I, Total execution time (CPU/WALL):       62.26/       9.54 seconds.
--executable xvdint finished with status     0 in        9.60 seconds (walltime).
 --invoking executable--
/home/asmola/.local/bin/xanti
 @GETMEM-I,  Allocated    3814 MB of main memory.
 CCSD MO gammas will be sorted to Mulliken order.
 @CHECKOUT-I, Total execution time (CPU/WALL):        3.60/       2.91 seconds.
--executable xanti finished with status     0 in        2.96 seconds (walltime).
 --invoking executable--
/home/asmola/.local/bin/xbcktrn
 @GETMEM-I,  Allocated    3814 MB of main memory.
 CCSD MO gammas will be transformed to the AO basis.
 @CHECKOUT-I, Total execution time (CPU/WALL):        8.48/       1.15 seconds.
--executable xbcktrn finished with status     0 in        1.18 seconds (walltime).
 --invoking executable--
/home/asmola/.local/bin/xvdint
 @GETMEM-I,  Allocated    3814 MB of main memory.
 One- and two-electron integral derivatives are calculated
 for RHF-CC/MBPT hessians and dipole derivatives.
 Spherical gaussians are used.
  magnet F F

                     Kinetic energy integral gradient
                     --------------------------------

                         O #1 x    -0.0241334004
                         O #1 y    -0.5390136330
                         H #2 x     0.3821320005
                         H #2 y     0.5736645724
                         CL#3 x    -0.3579986001
                         CL#3 y    -0.0346509394


 O #1      -0.0241334004           -0.5390136330            0.0000000000
 H #2       0.3821320005            0.5736645724            0.0000000000
 CL#3      -0.3579986001           -0.0346509394            0.0000000000



                   Nuclear attraction integral gradient
                   ------------------------------------

                         O #1 x   -23.1359538351
                         O #1 y     5.8174758075
                         H #2 x    -5.4180573392
                         H #2 y    -6.1542626297
                         CL#3 x    28.5540111743
                         CL#3 y     0.3367868222


 O #1     -23.1359538351            5.8174758075            0.0000000000
 H #2      -5.4180573392           -6.1542626297            0.0000000000
 CL#3      28.5540111743            0.3367868222            0.0000000000



                      Reorthonormalization gradient
                      -----------------------------

                         O #1 x     0.0000000000
                         O #1 y     0.0000000000
                         H #2 x     0.0000000000
                         H #2 y     0.0000000000
                         CL#3 x     0.0000000000
                         CL#3 y     0.0000000000


 O #1       0.0000000000            0.0000000000            0.0000000000
 H #2       0.0000000000            0.0000000000            0.0000000000
 CL#3       0.0000000000            0.0000000000            0.0000000000



                     Kinetic energy integral Hessian
                     -------------------------------


           Symmetry 1

           O #1 x      O #1 y      H #2 x      H #2 y      CL#3 x      CL#3 y

 O #1 x    0.055946
 O #1 y    0.553680    0.075569
 H #2 x    0.337907   -0.536715   -0.338560
 H #2 y   -0.536715   -0.289397    0.549448    0.291392
 CL#3 x   -0.393852   -0.016966    0.000653   -0.012733    0.393200
 CL#3 y   -0.016966    0.213829   -0.012733   -0.001995    0.029699   -0.211834


           Symmetry 2

           O #1 z      H #2 z      CL#3 z

 O #1 z   -0.897226
 H #2 z    0.694266   -0.700713
 CL#3 z    0.202960    0.006448   -0.209408




           O #1 x      O #1 y      O #1 z      H #2 x      H #2 y      H #2 z

 O #1 x    0.055946
 O #1 y    0.553680    0.075569
 O #1 z    0.000000    0.000000   -0.897226

 H #2 x    0.337907   -0.536715    0.000000   -0.338560
 H #2 y   -0.536715   -0.289397    0.000000    0.549448    0.291392
 H #2 z    0.000000    0.000000    0.694266    0.000000    0.000000   -0.700713

 CL#3 x   -0.393852   -0.016966    0.000000    0.000653   -0.012733    0.000000
 CL#3 y   -0.016966    0.213829    0.000000   -0.012733   -0.001995    0.000000
 CL#3 z    0.000000    0.000000    0.202960    0.000000    0.000000    0.006448


           CL#3 x      CL#3 y      CL#3 z

 CL#3 x    0.393200
 CL#3 y    0.029699   -0.211834
 CL#3 z    0.000000    0.000000   -0.209408




                   Nuclear attraction integral Hessian
                   -----------------------------------


           Symmetry 1

           O #1 x      O #1 y      H #2 x      H #2 y      CL#3 x      CL#3 y

 O #1 x  -10.360576
 O #1 y   -3.157227   10.208024
 H #2 x   -4.331287    3.925958    3.813162
 H #2 y    3.969774    0.138020   -4.719676   -0.174780
 CL#3 x   14.691863   -0.768731    0.518125    0.749902  -15.209989
 CL#3 y   -0.812548  -10.346044    0.793718    0.036760    0.018829   10.309284


           Symmetry 2

           O #1 z      H #2 z      CL#3 z

 O #1 z   16.746227
 H #2 z   -6.978971    7.450812
 CL#3 z   -9.767255   -0.471841   10.239096




           O #1 x      O #1 y      O #1 z      H #2 x      H #2 y      H #2 z

 O #1 x  -10.360576
 O #1 y   -3.157227   10.208024
 O #1 z    0.000000    0.000000   16.746227

 H #2 x   -4.331287    3.925958    0.000000    3.813162
 H #2 y    3.969774    0.138020    0.000000   -4.719676   -0.174780
 H #2 z    0.000000    0.000000   -6.978971    0.000000    0.000000    7.450812

 CL#3 x   14.691863   -0.768731    0.000000    0.518125    0.749902    0.000000
 CL#3 y   -0.812548  -10.346044    0.000000    0.793718    0.036760    0.000000
 CL#3 z    0.000000    0.000000   -9.767255    0.000000    0.000000   -0.471841


           CL#3 x      CL#3 y      CL#3 z

 CL#3 x  -15.209989
 CL#3 y    0.018829   10.309284
 CL#3 z    0.000000    0.000000   10.239096




                Highest order reorthonormalization Hessian
                ------------------------------------------


           Symmetry 1

           O #1 x      O #1 y      H #2 x      H #2 y      CL#3 x      CL#3 y

 O #1 x    0.000000
 O #1 y    0.000000    0.000000
 H #2 x    0.000000    0.000000    0.000000
 H #2 y    0.000000    0.000000    0.000000    0.000000
 CL#3 x    0.000000    0.000000    0.000000    0.000000    0.000000
 CL#3 y    0.000000    0.000000    0.000000    0.000000    0.000000    0.000000


           Symmetry 2

           O #1 z      H #2 z      CL#3 z

 O #1 z    0.000000
 H #2 z    0.000000    0.000000
 CL#3 z    0.000000    0.000000    0.000000




           O #1 x      O #1 y      O #1 z      H #2 x      H #2 y      H #2 z


           CL#3 x      CL#3 y      CL#3 z




                Electronic contributions to dipole moment
                -----------------------------------------

                               au             Debye

                    x      1.75981185      4.47299634
                    y      0.18964806      0.48203736

  Conversion factor used: 1 a.u. =   2.54174691 Debye 



   Electronic contributions to static part of dipole moment derivatives
   --------------------------------------------------------------------


                     Total dipole moment derivatives
                     -------------------------------


           Symmetry 1
                              Ex             Ey

               O #1 x    -8.89588687    -0.07472826
               O #1 y    -0.20518528    -8.72988745
               H #2 x    -0.24082290     0.17084966
               H #2 y     0.31682805    -0.38857694
               CL#3 x   -16.86329024    -0.09612140
               CL#3 y    -0.11164277   -16.88153561

           Symmetry 2
                              Ez

               O #1 z    -8.37591854
               H #2 z    -0.73223445
               CL#3 z   -16.89184701



                       Ex          Ey          Ez

      O #1    x   -8.895887   -0.074728    0.000000
      O #1    y   -0.205185   -8.729887    0.000000
      O #1    z    0.000000    0.000000   -8.375919

      H #2    x   -0.240823    0.170850    0.000000
      H #2    y    0.316828   -0.388577    0.000000
      H #2    z    0.000000    0.000000   -0.732234

      CL#3    x  -16.863290   -0.096121    0.000000
      CL#3    y   -0.111643  -16.881536    0.000000
      CL#3    z    0.000000    0.000000  -16.891847

 Evaluation of 1e integral derivatives required    1.16 seconds.
 Evaluation of 2el integral derivatives

                      Two-electron integral gradient
                      ------------------------------

                         O #1 x    10.6684686352
                         O #1 y    -2.3157342565
                         H #2 x     2.9438776648
                         H #2 y     2.7866854835
                         CL#3 x   -13.6123463000
                         CL#3 y    -0.4709512270


 O #1      10.6684686352           -2.3157342565            0.0000000000
 H #2       2.9438776648            2.7866854835            0.0000000000
 CL#3     -13.6123463000           -0.4709512270            0.0000000000


 Evaluation of 2e integral derivatives required  154.98 seconds.

                            Molecular gradient
                            ------------------

                         O #1 x    -0.0785971336
                         O #1 y     0.2078845248
                         H #2 x    -0.1806996989
                         H #2 y    -0.2453500576
                         CL#3 x     0.2592968325
                         CL#3 y     0.0374655328


 O #1      -0.0785971336            0.2078845248            0.0000000000
 H #2      -0.1806996989           -0.2453500576            0.0000000000
 CL#3       0.2592968325            0.0374655328            0.0000000000


  Molecular gradient norm 0.459E+00

                            Molecular hessian
                            -----------------


           Symmetry 1

           O #1 x      O #1 y      H #2 x      H #2 y      CL#3 x      CL#3 y

 O #1 x    3.254829
 O #1 y    3.306539    7.367134
 H #2 x   -2.137994   -4.971186    2.527749
 H #2 y   -3.402629   -7.352403    3.693158    6.953743
 CL#3 x   -1.116834    0.406318   -0.598967   -0.229876    1.715801
 CL#3 y    0.096091   -0.014730   -0.147650   -0.003176    0.051559    0.017906


           Symmetry 2

           O #1 z      H #2 z      CL#3 z

 O #1 z   -3.006040
 H #2 z    2.993322   -3.089292
 CL#3 z    0.012718   -0.068422    0.055704




           O #1 x      O #1 y      O #1 z      H #2 x      H #2 y      H #2 z

 O #1 x    3.254829
 O #1 y    3.306539    7.367134
 O #1 z    0.000000    0.000000   -3.006040

 H #2 x   -2.137994   -4.971186    0.000000    2.527749
 H #2 y   -3.402629   -7.352403    0.000000    3.693158    6.953743
 H #2 z    0.000000    0.000000    2.993322    0.000000    0.000000   -3.089292

 CL#3 x   -1.116834    0.406318    0.000000   -0.598967   -0.229876    0.000000
 CL#3 y    0.096091   -0.014730    0.000000   -0.147650   -0.003176    0.000000
 CL#3 z    0.000000    0.000000    0.012718    0.000000    0.000000   -0.068422


           CL#3 x      CL#3 y      CL#3 z

 CL#3 x    1.715801
 CL#3 y    0.051559    0.017906
 CL#3 z    0.000000    0.000000    0.055704




                           Total dipole moment
                           -------------------

                               au             Debye

                    x     -0.18780022     -0.47734063
                    y     -0.56246818     -1.42965175

  Conversion factor used: 1 a.u. =   2.54174691 Debye 



                     Total dipole moment derivatives
                     -------------------------------


           Symmetry 1
                              Ex             Ey

               O #1 x    -0.49771848    -0.03974980
               O #1 y    -0.18533304    -0.18594005
               H #2 x     0.25341194     0.00082652
               H #2 y     0.12053447     0.19953631
               CL#3 x     0.24430686     0.03892315
               CL#3 y     0.06479863    -0.01359630

           Symmetry 2
                              Ez

               O #1 z    -0.35840196
               H #2 z     0.33687495
               CL#3 z     0.02152712



                       Ex          Ey          Ez

      O #1    x   -0.497718   -0.039750    0.000000
      O #1    y   -0.185333   -0.185940    0.000000
      O #1    z    0.000000    0.000000   -0.358402

      H #2    x    0.253412    0.000827    0.000000
      H #2    y    0.120534    0.199536    0.000000
      H #2    z    0.000000    0.000000    0.336875

      CL#3    x    0.244307    0.038923    0.000000
      CL#3    y    0.064799   -0.013596    0.000000
      CL#3    z    0.000000    0.000000    0.021527

  Molecular gradient does not satisfy rotational invariance condition.
   rotational invariance in yz-plane :        0.0000E+00
   rotational invariance in xz-plane :        0.0000E+00
   rotational invariance in xy-plane :        -.4222E-01
 @CHECKOUT-I, Total execution time (CPU/WALL):      156.21/      21.21 seconds.
--executable xvdint finished with status     0 in       21.25 seconds (walltime).
 --invoking executable--
/home/asmola/.local/bin/xjoda
  @GTFLGS-I, Hessian will be transformed to curvilinear coordinates.
  @GTFLGS-I, Hessian will be transformed to curvilinear coordinates.
  igrd and ihes are                      0                     1
  gradient from JOBARC 
  -0.078597133625835   0.207884524765603   0.000000000000000
  -0.180699698856035  -0.245350057578864   0.000000000000000
   0.259296832481836   0.037465532813259   0.000000000000000
 
  @PROJFCM-I, Projecting force constant matrix onto totally symmetric subspace.
  Largest difference between matrix elements of symmetrized
  and unsymmetrized FCM :     0.0000000000E+00.
 
  Summary of diagonal Born-Oppenheimer correction at the correlated level
  The total diagonal Born-Oppenheimer correction (DBOC) is:      0.0086066292 a.u.
  The total diagonal Born-Oppenheimer correction (DBOC) is:       1888.936762 cm-1
  The total diagonal Born-Oppenheimer correction (DBOC) is:            22.597 kJ/mole
  hellooooooo 
  readis is  F
 
 @CHECKOUT-I, Total execution time (CPU/WALL):        0.01/       0.04 seconds.
--executable xjoda finished with status     0 in        0.08 seconds (walltime).
  The final electronic energy is      -535.498850024826652 a.u. 
  This computation required                          880.60 seconds (walltime).
